VARIABLES = "X", "Y", "P", "U", "V"
ZONE NODES=1945, ELEMENTS=3728, DATAPACKING=BLOCK,
ZONETYPE=FETRIANGLE
-0.93493399440916358234
-0.96746699720458173566
-0.91746699720458191329
-1.00000000000000000000
-0.95000000000000017764
-0.90000000000000024425
-0.96746699720458173566
-1.00000000000000000000
-1.00000000000000000000
-0.89480474531450093778
-0.87733774810991915771
-0.85467549621983818220
-0.92752226916951641122
-0.92011054392986924011
-0.96005527196493467557
-0.88739302007485365564
-0.82733774810991933535
-0.85000000000000031086
-0.80000000000000048850
-0.96005527196493467557
-1.00000000000000000000
-1.00000000000000000000
-0.86913004852575825865
-0.83641252467074278520
-0.81814955312164727719
-0.80493621594429276556
-0.77759846783437391871
-0.75519693566874745994
-0.78667324439519736856
-0.91666595015846574768
-0.91322135638706225524
-0.95661067819353107211
-0.86568545475435476622
-0.75000000000000044409
-0.70000000000000039968
-0.72759846783437387430
-1.00000000000000000000
-0.95661067819353107211
-1.00000000000000000000
-0.76219387126389137599
-0.73071756253744146736
-0.70623818940613547479
-0.87052814812088508134
-0.82299224648817759231
-0.82783493985470801846
-0.67634315664057687023
-0.65268631328115322976
-0.70394162447495034485
-0.78442527112372451015
-0.72846958926596849793
-0.75070098912580163208
-0.67946225134364435227
-0.78926796449025482527
-0.91368139324984809502
-0.95684069662492410302
-0.91345137481845517513
-0.87075816655227811225
-0.62634315664057682582
-0.65000000000000035527
-0.60000000000000042188
-0.65500745448385455649
-0.62823151642136343398
-0.60377671956157363820
-0.95684069662492410302
-1.00000000000000000000
-1.00000000000000000000
-0.65807232991877262496
-0.70438665952228718403
-0.68215525966245404987
-0.74425286860155182023
-0.78604390422812997485
-0.74747692886367667064
-0.63092452474017313158
-0.82789504682994785600
-0.87078822003989797551
-0.82786499334232788172
-0.60214757550523811958
-0.57580441886466160462
-0.55160883772932289837
-0.57769277864544821277
-0.78607395771574983812
-0.70116259926016222259
-0.91361131677341644863
-0.91354124029698480225
-0.95677062014849245664
-0.87071814356346632913
-0.57823283552556525855
-0.55268895148955698993
-0.60538064070416486295
-0.52580441886466156021
-0.55000000000000037748
-0.50000000000000033307
-0.55319874391407330982
-0.52711480299794788440
-0.50262076826657287043
-0.70223438419684836020
-0.65914411485545876257
-0.66021589979214490018
-0.52765485987806493018
-1.00000000000000000000
-1.00000000000000000000
-0.95677062014849245664
-0.74192964500598368449
-0.78491234591796577025
-0.74309125680376775236
-0.59029636604987412163
-0.62418434798432342880
-0.57149265876971555578
-0.82677590145307577885
-0.87015857087503034606
-0.82733547414151176191
-0.70107277239906429234
-0.62525613292100956642
-0.45126920856649477276
-0.50143902314790889108
-0.47563460428324755291
-0.47694498841653382160
-0.78435277322952967616
-0.47870974738227295431
-0.45479872649797303819
-0.50374383899376495854
-0.91311272552956124215
-0.95655636276478062108
-0.91332698291327307771
-0.86994431349131851050
-0.53032445827725549492
-0.50795996506495399991
-0.54912816555741406077
-0.65719092886350993776
-0.65416595793487497534
-0.69804780147042932992
-0.48137934578146351905
-0.42563460428324756402
-0.45000000000000034417
-0.40000000000000035527
-0.57362172801964295132
-0.61691881390589387024
-0.58195904703475853648
-0.40272678480761037179
-0.45267377653709162111
-0.42699799668705257227
-0.42876275565279170499
-0.74039899858293289903
-0.73886835215988211356
-0.78282212680647900171
-0.61389384297725890782
-1.00000000000000000000
-1.00000000000000000000
-0.95655636276478062108
-0.54079084654229847562
-0.69651715504737854445
-0.82548607080643277012
-0.86929939816799706165
-0.82613098612975432999
-0.40954788147475551519
-0.45875392326985475755
-0.43217330398636427669
-0.40127472239754946592
-0.37564011811430225718
-0.35128023622860415909
-0.78217721148315744184
-0.37700351051810726544
-0.37856792928704907641
-0.35440907376648772553
-0.40460390013223035410
-0.48788373227362397122
-0.46780749948229394253
-0.52071461375096839141
-0.38197847762062164811
-0.56776351662443647061
-0.56190530522922998991
-0.60803563158205253814
-0.95642700839314753747
-0.91298337115792815855
-0.91285401678629507494
-0.86917004379636386702
-0.43867769047852472886
-0.65140851927033072144
-0.64865108060578657856
-0.69375971638283440157
-0.32564011811430226828
-0.35000000000000036637
-0.30000000000000037748
-0.51485640235576202173
-0.60527819291750828423
-0.78077694501076089217
-0.73746808568748556389
-0.73606781921508912525
-0.35283611408379000896
-0.32711283979428684709
-0.30294544335996959061
-0.32867725856322865807
-0.69235944991043785190
-0.30185787225092319819
-0.35570287686283935669
-0.32813347300870543410
-1.00000000000000000000
-1.00000000000000000000
-0.95642700839314753747
-0.39036719442519318690
-0.37118650737563091413
-0.41949700342896245608
-0.82500805117776587760
-0.86893103398203042076
-0.82524706099209932386
-0.78053793519642744592
-0.51582739520558962276
-0.46877849233212165458
-0.46974948518194931113
-0.33652218981327708391
-0.27564276394313580454
-0.25128552788627117609
-0.30128288205743769534
-0.27711548562312038335
-0.55945743292192606777
-0.55700956061462214564
-0.60283032061020436210
-0.25558064397254753874
-0.30499485886951760438
-0.27926304366625853692
-0.27871925811173536847
-0.64321066331558840456
-0.68963924126533870940
-0.64593087196068754707
-0.51337952289828570063
-0.37597282176410429244
-0.38075913615257761524
-0.42428331781743577888
-0.91338314924910035675
-0.95669157462455012286
-0.91311858301769777135
-0.42525431066726349094
-0.86919560021343311718
-0.60011011196510533061
-0.77978387810987026540
-0.73531376212853194474
-0.73455970504197476423
-0.25000000000000038858
-0.20000000000000039968
-0.22564276394313578789
-0.29613250628346943216
-0.33365950682955014539
-0.29899518926719631517
-0.68888518417878152889
-0.20331089986355602162
-0.25312817161176281999
-0.22729821387491361273
-0.22944577191805176630
-0.23421676495883675395
-0.21285288594512599691
-0.25735537909802458367
-0.33844582121802352370
-0.46865910253372239369
-0.46756871988549547625
-0.51228914025005878319
-1.00000000000000000000
-1.00000000000000000000
-0.95669157462455012286
-0.42608825107868603110
-0.38159307656400021092
-0.38242701697542275108
-0.82737868268720859977
-0.87038091596815447826
-0.82619336693248723869
-0.78096919386459173751
-0.25516088439990103343
-0.25802356738362791644
-0.21418926251633263469
-0.21352107423072930192
-0.55334048883233488692
-0.54967141705004762819
-0.59644104018281796087
-0.42499786843045911366
-0.17534786613428757218
-0.15069573226857474468
-0.20099063007742296039
-0.17700331606606539703
-0.63218015403348337689
-0.68336992953772912607
-0.63769540867453589073
-0.50862006846777152447
-0.20737027347904857244
-0.18123540142455282775
-0.15915990298554963389
-0.18600639446533781540
-0.29643518858642747826
-0.29673787088938557988
-0.33874850352098162531
-0.33958244393240416548
-0.59092578554176555805
-0.95751233360422416396
-0.91420390822877428683
-0.91502466720844832793
-0.87120167494782840834
-0.74295465058488807664
-0.78516666663604839371
-0.73875717781343142043
-0.68756740230918578227
-0.21318739925845400784
-0.21218553600057538100
-0.25415902114202237883
-0.15000000000000041078
-0.10000000000000042188
-0.12534786613428758328
-0.38160950965770845666
-0.42458911477160199421
-0.38201826331656563163
-0.25446170344498048044
-0.17428913288912617485
-0.17362094460352286984
-0.13438900326191974277
-0.15222023792333844172
-0.12591265412584778938
-0.10112957598312084795
-0.50646738356376230783
-0.46541603498148620410
-0.46326335007747698747
-0.14677445312373468833
-0.13014473948433524786
-1.00000000000000000000
-1.00000000000000000000
-0.95751233360422416396
-0.33965138327345412161
-0.29680681023043553601
-0.29687574957148543664
-0.42243642986759272206
-0.53318439157458996647
-0.58268227280403661617
-0.54142790431231879733
-0.83333646551464168883
-0.87418056636154495287
-0.83035757410092514430
-0.33924262961459694665
-0.78814555804976493825
-0.17135131127471842083
-0.12851336003310423473
-0.17034944801683982174
-0.13145118164751198875
-0.66559895142104152921
-0.70427680100296474741
-0.64888955272726245305
-0.49822387082603347697
-0.09982985079617635871
-0.07448198466188919731
-0.04896396932377796579
-0.07504677265344940340
-0.21184564476058481697
-0.21150575352059425294
-0.25412181220498991641
-0.10402170547992808936
-0.04888350797430654482
-0.09163625561811314379
-0.07500654197871370332
-0.25419075154603987254
-0.55501198709289178979
-0.59359607056318752782
-0.54409818933374087813
-0.91625192205272276702
-0.95812596102636138351
-0.91563829463058554747
-0.61030546925696671501
-0.87479419378368228344
-0.42223724005950491467
-0.38141031984962059376
-0.38121113004153278636
-0.75379748776894861528
-0.76464032495300904291
-0.79898839523382536587
-0.33915388644529925743
-0.29678700640218774742
-0.29669826323289005821
-0.71511963818702528606
-0.12629560460473712724
-0.16924057030265626800
-0.12740448231892068098
-0.16890067906266570397
-0.05000000000000041911
-0.00000000000000041536
-0.02448198466188919106
-0.08915161256683321045
-0.04391422187174667119
-0.08621379095242545643
-0.49886958154135113697
-0.46390906079279464747
-0.46455477150811230747
-0.33895469663721145004
-0.04639886492302661147
-0.02280086247355005841
0.00336224437667784985
-0.04888366580322149602
-0.02276063179881434792
-0.25405219058529027176
-0.21136719255984465216
-0.21122863159909505137
-0.42288295077482251916
-0.50978337930050199311
-0.95812596102636138351
-1.00000000000000000000
-1.00000000000000000000
-0.25396344741599252703
-0.83419342457936940249
-0.87522267331604608476
-0.83376494504700549015
-0.79941687476618916719
-0.56312808852828755146
-0.61436351997466454034
-0.55907003781058972613
-0.70654325400817907799
-0.74748755659531651574
-0.75606394077416272381
-0.08477187953590178959
-0.04103039903869935140
-0.08366300182171823585
-0.04247231045522301129
0.02714171752788975198
0.05428343505577992029
0.00265973286600097725
-0.16846977395322032534
-0.12586469949529177637
-0.12543379438584639773
0.02882283971622888463
-0.00029541028312374609
-0.00278005333440368291
0.04332340130549917900
-0.16833121299247072455
-0.33907225836518617434
-0.29681582496086483802
-0.29693338668883961784
-0.47056930703315646980
-0.51279064706302412979
-0.46756203927063438863
-0.00022773292676100607
0.02589514324873119083
0.04842804212078453269
-0.79084049058734295912
-0.60840678741133891183
-0.65368548629439027220
-0.65964221885771590070
-0.70058652144485344948
-0.42364331583624259547
-0.38197149510295286268
-0.38273186016437293899
-0.51684869778072206614
-0.91532767448909491126
-0.95766383724454740012
-0.91578979827090889465
-0.87476054953423210137
0.04587572171314185931
-0.21114560430264678326
-0.25392193376776839298
-0.21118711795087091732
-0.33983262342660625066
-0.08293748882291789026
-0.04030488603989900581
-0.03957937304109866022
-0.08250658371347252551
-0.25403949549574322830
0.04999999999999952399
0.09999999999999946432
0.07714171752788968883
0.04478533664111401108
0.00187746880120732984
0.00043555738468366995
-0.42665058359876473215
0.04405436897330659851
0.05957554017270359770
0.08503613551225462641
0.11578883596872933948
-0.78807894686173229903
-0.82867033712814808233
-0.83143188085375874241
-0.12510048716705632343
-0.16816455938307567353
-0.12526714077645134671
0.08210843904475693955
-0.51792779501174557311
-0.47164840426417997676
-0.47272750149520353924
-0.87199900580862155230
-0.16812304573485153947
-0.95766383724454740012
-1.00000000000000000000
-1.00000000000000000000
-0.56199188575221181718
-0.56085568297613608291
-0.60727058463526317755
-0.73846521224711991760
-0.74297638442121827218
-0.69607534927075509490
0.08815811250381648534
0.12788818288684844493
0.08560579209617380503
0.00265899510536796863
0.04634838924943528865
0.00338450810416831421
-0.51679159223566983883
-0.78356777468763394445
-0.34016303752230786506
-0.29726380078454117672
-0.29759421488024279112
0.04556686294527464987
-0.03925339182475493655
-0.03892741060841121287
-0.08218060249712880183
0.10480874608869639175
0.12766702856080616724
0.15533405712161285628
-0.38454461951186869051
-0.42755696327251258015
-0.38363823983812084251
0.13556144654517110482
-0.25409627024009640017
-0.21120237904700001064
-0.21125915379135321026
0.12183850942778889914
-0.08201394888773376468
0.08766861827816500863
0.08693765061035760300
0.13055189991521601311
-0.42863606050353608712
0.12922004140103221514
-0.87090613334722877248
-0.91314192956630946263
-0.91423480202770224246
-0.25442668433579801457
-0.95657096478315473131
-0.64651753278776558087
-0.65010150954107792654
-0.60368660788195083189
-0.34106941719605576857
-0.16806685116359745824
-0.12504429259580221445
-0.12498809802454811935
-0.69249137251744274923
0.00384530619195114914
0.04680918733721812358
0.04726998542500095851
0.00417128740829487282
0.08931294038565558424
0.08853141408149493852
0.13227749152187587289
-0.16812362590795065787
0.16417759408485288475
0.21256635220097641614
0.17022726754391243054
-0.78105024512917853308
-0.82363527801123703753
-0.82615280756969255993
-0.51636978598448812772
-0.47230569524402188364
-0.47188388899284022804
0.17766702856080615613
0.14999999999999946709
0.19999999999999945599
0.13141469571854594300
0.16207236558826124129
0.18184497616470299275
0.20835589520779312922
-0.86838860378877325008
-0.03865241177768333203
-0.08187644947236982773
-0.03878991119304726898
-0.38481600735153531634
-0.38508739519120194217
-0.42890744834320271295
-0.08182025490111571875
0.21046112370438477268
-1.00000000000000000000
-1.00000000000000000000
-0.95657096478315473131
-0.55691045218219903390
-0.60171399248498236290
-0.55888306757916761391
-0.29785007669118879203
-0.29810593850213479294
-0.34132527900700171397
-0.42848564209202111286
0.17327643990511251704
0.17194458139092871907
0.21600097989500902096
-0.21135026245973589920
-0.21144137112811858814
-0.25451779300418070351
-0.68858732656251020465
-0.73065712033725493946
-0.73456116629218737302
-0.51439717058751965872
0.21428366604799270467
0.08988894069971291312
0.13342949214999053065
0.09034973878749574805
-0.77714619917424598849
0.13285349183593320177
0.00439431215972423128
0.04749301017643031697
0.04771603492785967543
-0.16811335869559426714
-0.12497783081219171475
-0.12496756359983532403
-0.34159666684666833980
0.00453181157508817170
0.17515864431445993254
0.17429584851113000266
0.21803979710704399220
-0.25477365481512670442
0.20448357129221131356
0.22681654273140461342
0.25363308546280977085
0.23099449033530145003
-0.91120916717725874978
-0.91217554837178416172
-0.86742222259424783815
-0.16820446736397695608
-0.95560458358862931938
0.21702038850102650658
-0.03859021054988925892
-0.03852800932209518581
-0.08175805367332164564
-0.63801767260064923271
-0.64226760269420735128
-0.59746406239142413330
0.25856072565117804718
0.25645549715458637596
0.30455509910137967822
-0.68433739646895208608
-0.42837711933290756328
-0.38497887243208844810
-0.38487034967297495403
-0.08174778646096525492
0.25758756542296634695
0.30260877864495627776
0.25930487926998263548
-0.47057212613628113251
-0.51374128915924011096
-0.47122800756456068028
0.13406472150360401741
0.09066735346430249143
0.13374710682679727403
0.09089037821573184295
0.21946736646621411992
0.17644842930810233916
0.17587242899404498253
-0.77497751185758312342
-0.81929790337791130739
-0.82146659069457417246
0.21875358178662906994
0.27909409228209469678
-0.29817736495417745957
-0.29824879140622018170
-0.34166809329871106193
0.30358193887316797799
-0.86525353527758497307
-0.42772123790462801551
0.04792243131507552267
0.00463500976869609532
0.04781923312146760252
0.24999999999999950040
0.29999999999999954481
0.27681654273140465783
-0.25482570762971834544
-0.21149342394271025691
-0.21154547675730192569
0.00469721099649016843
-0.34155957053959756786
-1.00000000000000000000
-1.00000000000000000000
-0.95560458358862931938
0.25983562761547179809
0.30367027533593454747
0.26085503622148925595
-0.12496362400403532300
-0.12495968440823532197
-0.16820052776817695506
-0.55298564544483985728
-0.59550165902274454499
-0.55494804881351944559
0.30313952699044544037
-0.51177888579056052265
-0.25489713408176106757
-0.71720882386554174470
-0.72393297210139828657
-0.67761324823309543319
-0.08170852793241732692
-0.03848875079354725781
-0.03844949226499933675
-0.76825336362172658156
0.30368657861019554556
0.35374007175758137578
0.32914758542948052700
-0.16825258058276862383
0.17688642174591379108
0.22034335134183705152
0.17720403642272053446
0.21990535890402557184
0.09104380610665167850
0.13421814939452386684
0.13437157728544368851
0.26237711832037957649
0.26166333364079447099
0.30528687017454497754
0.09114700430025959865
0.32687003587879048805
-0.08170458833661732589
0.34721029431702621348
0.38986548953267274875
0.34623713408881451326
-0.86505773087860260429
-0.91081755837929390118
-0.91101336277827638099
-0.38492680797381451097
-0.38498326627465401240
-0.42777769620546757245
0.30447857275523976250
-0.95540877918964695059
0.04798141287857320136
0.04804039444207088005
0.00475619255998784712
-0.34159381860952714449
-0.29828303947614975833
-0.29831728754607933496
0.00479545108853577165
-0.62277834876264748232
-0.63039801068164835751
-0.58788199710374366980
-0.66999358631409466902
0.34612880274666579794
0.34559805440117669084
0.38858733015739710392
-0.25491700331449385075
-0.21156534599003473662
-0.21158521522276751980
0.35787900588115750811
0.38247149220925835689
0.41120291266093539351
-0.47092410062815714955
-0.47127607512003311108
-0.51213086028243648418
-0.34165027691036664592
0.38922640984503492634
0.40053420109680404337
-0.82139853486187719422
-0.82034821911989430632
-0.76930367936370946946
0.22079379633737081234
0.17742925892048741487
0.22056857383960393193
0.17758268681140726430
-0.16824143984040468291
-0.12494854366587136718
-0.12493740292350741239
-0.42812967069734353398
0.30648627869470673746
0.26341481501827190836
0.26297682258046040094
-0.86610804662058549219
0.30588657443462585750
-0.25495125138442342738
0.34999999999999958922
0.39999999999999963363
0.37687003587879053246
0.13452796235522646029
0.09122519683515098454
0.13444976982033507440
-0.08166823818897489540
-0.03841314211735690626
-0.03837679196971447576
0.09128417839864866323
0.34714697751865564168
0.39062367970137679141
0.34795527493796085672
-0.16826130907313746610
-0.95540877918964695059
-1.00000000000000000000
-1.00000000000000000000
0.38960550492938694767
0.00484425093825513464
0.04808919429179024652
0.04813799414150960604
-0.59005163620482059539
-0.55515528454591678287
-0.55732492364699370846
-0.08165709744661094061
-0.64723710317631244493
-0.68222296352092715033
-0.63500772596947996362
-0.51430049938351340977
0.40347347118737858507
0.45320687061717579436
0.43220489163905562169
-0.78049682820371169001
-0.72840197270554396525
-0.73959512154554629682
0.00488060108589756514
-0.29844587071902717312
-0.29857445389197501129
-0.34177886008331448409
0.46915639855537794034
0.42887186435638752213
0.42951094404402534455
0.42660343530858768624
0.26374998912056751843
0.30715662689929795759
0.26397521161833437109
0.42632144248886505444
0.43699015405299634907
0.46277739544505730462
0.30682145279700234752
0.22090168935007109541
0.22100958236277137847
0.17769057982410751961
-0.69341611236092937087
-0.86691842196106572160
-0.91243830906025436001
-0.91162793371977413059
-0.42861298952624099501
-0.38546658510355147342
-0.38594990393244887894
0.17776877235899890550
-0.21164876002582636016
-0.25498302378595283368
-0.21161698762429692611
0.34883666735034080109
0.39238646452613656912
0.34943637161042162553
-0.60228101341165307669
-0.95621915453012718000
0.39150507211375668026
0.13458265768354613079
0.13463735301186580129
0.09133887372696833373
0.46596689700021765024
-0.12493082193233692734
-0.12492424094116644229
-0.16825472808196698105
0.09138767357668770019
-0.34226217891221194511
0.43269818725609027199
0.43168001248410042825
0.47477269481080375257
-0.25511160695890067185
-0.08162169599628146810
-0.03834139051938500325
-0.03830598906905553075
-0.47313735496510622713
-0.47499863481017939870
-0.51616177922858652583
0.47196454668309084646
0.45714846895283101080
0.47815044793095123898
0.50309402524472668361
-0.16828650048349641510
-0.78381196550617471264
-0.82802880946680312846
-0.82471367216434021685
0.48293571034489202187
0.04818900351400176585
0.04824001288649391872
0.00493161045838972148
-0.43047426937131416658
0.44999999999999973355
0.49999999999999977796
0.47660343530858778616
-0.87023355926352874423
0.30731575018507339969
0.30747487347084884179
0.26413433490410981319
0.26424222791681012401
-0.08161511500511098305
0.39341688185380563336
0.35028675437655176772
0.34995158027425621317
-0.61031465104058013615
-0.56535856127592065690
-0.57339219890484771636
0.39290167318997110124
0.22113405270267005864
0.17783100752894825947
0.22107181753272070468
-0.65948947208273833720
-0.67174184098916422947
-0.70566848126735526314
0.00496701190871919399
0.17788570285726792997
-0.95621915453012718000
-1.00000000000000000000
-1.00000000000000000000
0.43514915121687997024
0.43426775880450008138
0.47791183790762337136
0.47634226635921356197
0.09144156231466539497
0.13469124174984348219
0.13474513048782119085
-0.52419541685751358528
0.50471448233218652035
0.50152498077702623025
0.54027256610899510036
-0.29871786460586807754
-0.34233388426915845049
-0.29864615924892157217
-0.25510599064522554436
-0.21164314371215120492
-0.21163752739847607742
0.09149257168715754784
-0.62256701994700591740
0.51352365179694758890
0.55789090503851723746
0.51633179992466049502
0.52717064611645503280
0.50222706880267953267
0.55124726698818338200
0.52168329567686089199
0.52562363349409157998
-0.75077931965545485760
-0.78940406456112899303
-0.74518722060050057721
-0.12492687888458782475
-0.16828781945520709940
-0.12492555991287712658
-0.71126058032230954353
-0.38620860240934457019
-0.38646730088624026145
-0.43073296784820980232
-0.87094595812376462973
-0.91386310678072613101
-0.91315070792049024551
-0.25517769600217210524
0.39390631189348701557
0.35069059268216795644
0.35053146939639245883
0.39366159687364632447
0.54908173557375616891
0.30755221184615766372
0.30762955022146643014
0.26431956629211889043
-0.03825790363563536661
-0.08159107228840090098
-0.03828194635234544868
0.26438180146206824439
-0.95693155339036306550
0.47953439947880938110
0.43647564066630750723
0.43596043200247297511
-0.34259258274605419725
-0.16828220314153194415
0.04829822023327161318
0.04835642758004931457
0.00502521925549689191
0.47872311869321637623
0.17793808467953667329
0.22118643452493880197
0.22123881634720754530
0.17799197341751438195
-0.47470024166695945489
-0.47440184852373956659
-0.52389702371429369698
0.52060913179722256849
0.51903956024881270359
0.56330642568682165461
-0.08159239126011159915
0.56059866536266944603
0.55137411822223425517
0.59965421119974193775
0.56996338865436846355
0.09155684172525127562
0.13480940052591491862
0.13487367056400864640
0.57545073909396271539
-0.43043457470498991402
-0.62869413960284525889
-0.65021799029600479969
-0.60104316925384648762
0.00504926197220697398
-0.79001901548210418103
-0.82925871130875350445
-0.82864376038777831646
0.54999999999999982236
0.59999999999999997780
0.57562363349409162439
-0.87156090904473981773
0.09161504907202898396
0.39401351996216216200
0.39412072803083730843
0.35079780075084310287
-0.68063726205413555004
-0.68953268311910687061
-0.72015600138728086410
0.35087513912615186928
0.43685279926064535250
0.48028871666748507163
0.43709751428048604360
-0.21099517874956319474
-0.25485652167771566390
-0.21131635307401963608
0.47991155807314722637
0.60315009042703704445
0.59434092096227608693
0.64840927581555696246
-0.95693155339036306550
-1.00000000000000000000
-1.00000000000000000000
0.26443416481337161938
0.30768191357276980513
0.30773427692407318013
0.26448654663564036271
-0.12488471375339071923
-0.12484254862219359983
-0.16824003801033482475
-0.29812343319490053339
-0.34229536704057039742
-0.29842064890038433322
-0.65911341136097600923
-0.55774992242073562210
-0.56557106066279172474
-0.51607588547223759434
0.52257112128524318972
0.52175984049965018485
0.56560784309167699835
0.62403174350764945011
-0.59322203101179038498
0.22129615650193348864
0.22135349665665943197
0.17804931357224029753
0.56445713438924927097
0.17811358361033402531
-0.08163122648980342122
-0.03829673886532719562
-0.03833557409501903157
0.60680914100449523385
0.60410138068034302528
0.65031185632216881309
-0.16791886368587838341
-0.25455930597223186407
0.60132970700422372357
0.65141214702026406513
0.62553317911000294593
-0.38549157031539282858
-0.42994670941956619759
-0.38597943560081654502
0.62570607351013207698
0.04842693482413479300
0.04849744206822027837
0.00511976921629245588
0.64936056606886283227
-0.74558735348964222389
-0.78742303239919786417
-0.74818333657254854074
-0.71756001830437454725
-0.87116081356748498177
-0.91306291582621645908
-0.91346301130347129504
-0.08158906135860631570
0.09170590272216844197
0.13496452421414811829
0.13505537786428756242
0.48060269183719850350
0.43736170993401790597
0.43725450186534275954
-0.34180750175514668099
-0.95653145791310822954
0.39417750818934682577
0.39423428834785634312
0.35093191928466138663
0.48044570425234178757
0.52346771126574287436
0.52309055267140514012
0.56664670586400078811
0.35098428263596476162
0.00508093398660062340
0.30778483941898715504
0.30783540191390112994
0.26453710913055433762
0.56612727447783894874
-0.65000928093272947184
-0.66977098202591811571
-0.63935171026778736536
0.67571326280201637893
0.65133573049410897760
0.70301724978847590641
0.09177640996625391345
0.26459444928528030871
-0.46679717229847134119
-0.51227354735960350940
-0.47059951041110548164
-0.60387960167673249146
0.60884454766805529147
0.60769383896562767511
0.65208125224443369561
0.67721469840436998577
0.65119655428330125435
-0.42614437130693205713
0.22149259259974329872
0.17818313158187598644
0.22142304462820136535
-0.12387942866456300162
-0.16743730370706311206
-0.12436098864337830072
-0.20836301961415731876
-0.25324322640452889832
-0.20967909918186025675
-0.69779831721118590337
0.17827398523201543057
0.65000000000000013323
0.70000000000000017764
0.67570607351013212138
-0.78460537017642129065
-0.82362338686320046843
-0.82644104908597704195
-0.86834315134470840825
0.69502639407912214509
0.69407510382581616426
0.73974093183607547708
-0.03924136821806522429
-0.08204195842012941553
-0.03878847115654213140
0.48067037934644640806
0.48073806685569431263
0.43742939744326581053
0.43748617760177532787
0.52383938216980863167
0.52368239458495191574
0.56707607250241875985
-0.95653145791310822954
-1.00000000000000000000
-1.00000000000000000000
0.56686138918320971847
-0.29769376938573088864
-0.34159266985056185861
-0.29790860129031571102
-0.16612122413936014631
0.35102987551119746445
0.39427988122308904595
0.39432547409832174878
0.04858705145094904809
0.04867666083367782476
0.00517054336932939659
0.35108043800611143936
-0.08156039844131411642
0.69767398069771302538
0.72497796768417255286
0.74693868557986919932
0.60987040482323662260
0.60935097343707478323
0.65309410378247245710
-0.60084613435763400968
-0.55471645510163702930
-0.55168298778253854753
-0.25302839449994407595
0.74333980870797233820
0.30788985832271176246
0.30794431473152233947
0.26464890569409088572
-0.50924008004050491660
0.65258767801345307635
0.09195613762010540482
0.13523510551813905378
0.13541483317199051739
0.26471845366563284685
0.70285940382523492964
0.75430666063020590517
0.72866195520934096130
0.00471764630780630023
0.69481199699960893845
0.73931213767704906381
0.69569669496074137971
-0.42734620433079339996
-0.38669340333925417141
-0.38789523636311551424
-0.68974614459551986112
-0.72948300825831025040
-0.73753518087397629266
0.72715333031510298589
0.73952653475656227045
0.22165743628492332040
0.17835640707460542753
0.22157501444233329568
-0.77655319756075535942
-0.91132920701415276454
-0.91219606142018461181
-0.86747629693867667200
0.09204574700283417454
-0.34279450287442320144
-0.95566460350707638227
0.56724604404439393779
0.52399205545004412521
0.52392436794079622064
0.56716105827340634882
0.43752898398868800278
0.48078087324260698754
0.48082367962951971796
0.61032264194314866934
0.61010795862393973898
0.65356921138387857884
0.43757457686392076113
0.17853613472845691890
-0.11358311113744674892
-0.16097306537580202690
-0.11873126990100488221
0.35112634362420813705
0.39437137971641844647
0.39441728533451508865
0.65333165758317557348
-0.04604447857972535085
-0.08496195362214417623
-0.04264292339889529104
0.35118080003301871406
0.78187706735238071687
0.75991634945668407042
0.81681544912489223442
-0.59882124186688623357
-0.64595949595123391962
-0.64798438844198169573
-0.25144952274310911067
-0.20678414785732229797
-0.20520527610048730494
0.78556105487754912531
0.69592794974142457853
0.73977464723841535044
0.69643437551044384826
-0.45428061817669207478
-0.44176406405491275287
-0.49672352591872565020
-0.68772125210477208501
0.26476721252129392647
0.30799307358718341909
0.30804183244284455423
0.73954339245773215161
-0.41482965020901413356
0.04879741342730213594
0.04891816602092644711
0.00483839890143061141
0.78650501508553261054
0.82607134459119602177
0.78290613821363574942
0.26484963436388392344
-0.07981379485858605682
0.75000000000000022204
0.80000000000000037748
0.77715333031510314132
-0.15939419361896703387
0.78310545704584733073
0.82646998225561918439
0.78289105996633412410
-0.77098163239327099916
-0.81248025652823185894
-0.81805182169571621920
-0.86190473177119231174
0.13604770479804501049
0.13668057642409950359
0.09267861862888866764
0.00143684372060054813
-0.36705340860462598584
-0.32195267511593372856
-0.34621158084613651296
0.56728805028187556658
0.56733005651935730640
0.52403406168752586503
0.52407686807443853994
-1.00000000000000000000
-1.00000000000000000000
-0.95566460350707638227
0.65376257535799486842
0.61050430970119440310