VARIABLES = "X", "Y", "P", "U", "V"
ZONE NODES=1941, ELEMENTS=3720, DATAPACKING=BLOCK,
ZONETYPE=FETRIANGLE
0.03251315639870844265
0.01625657819935422133
0.04125657819935422271
0.00000000000000000000
0.02500000000000000139
0.05000000000000000278
0.01625657819935422133
0.00000000000000000000
0.00000000000000000000
0.05255498028105571456
0.06129840208170149463
0.07259680416340298648
0.03988659978650001270
0.01994329989325000635
0.03619987809260422768
0.05624170197495149959
0.07500000000000001110
0.10000000000000000555
0.08629840208170150295
0.00000000000000000000
0.00000000000000000000
0.01994329989325000635
0.08166666466624014631
0.09073652516907730614
0.06531156247778865942
0.09741975920363109276
0.11112135712192960924
0.12224271424385919904
0.10648961970646825259
0.02163981303006103432
0.04158311292331104414
0.04327962606012206864
0.06700807561459969086
0.12500000000000000000
0.14999999999999999445
0.13612135712192960368
0.00000000000000000000
0.02163981303006103432
0.00000000000000000000
0.13436989318793710058
0.14649707213201498823
0.11861679865054614025
0.08584622843998677977
0.06456292725005442767
0.08829137680453204295
0.16166674496546568074
0.17333348993093139478
0.14778810208739528997
0.15991528103147317763
0.10753964921203834626
0.13541992269350719424
0.12434277325499940026
0.10509450084749308307
0.04296480121792953244
0.02148240060896476622
0.04312221363902579707
0.06440551482895814916
0.18666674496546570294
0.17499999999999998890
0.20000000000000001110
0.19731814938230010648
0.17190761075715754735
0.18532581965661576451
0.00000000000000000000
0.00000000000000000000
0.02148240060896476622
0.14743671161466098685
0.15851386105316878083
0.17053064997432260119
0.12602881874696014730
0.12771486423892089435
0.10678054633945383012
0.18392439967831136771
0.06430898923141911694
0.08574970284244773366
0.08565317724490868756
0.19846835224373393647
0.21180160727826824463
0.22360321455653650591
0.21046068196941830619
0.10668402074191479789
0.14912275710662176165
0.02139416723547983915
0.04287656784444460190
0.04278833447095967829
0.06422075585793418639
0.19640124183233645394
0.20979499153632519270
0.22227183369035030669
0.23680160727826826683
0.22500000000000000555
0.25000000000000000000
0.22225139362798884690
0.23539392621510704662
0.24718463787367758733
0.17064342172217950022
0.14917914298055018341
0.17058703584825105071
0.23472823578201396089
0.00000000000000000000
0.00000000000000000000
0.02139416723547983915
0.12896386803242901320
0.10730852263866885732
0.12833936613567495377
0.21339415626801430670
0.20451647884567830671
0.18752356441000045395
0.08536133538913787122
0.06407483493004877129
0.08550725631702327245
0.14980364487730424283
0.18757995028392890347
0.27342280429819870724
0.24851300942736759270
0.26171140214909938138
0.26030372108593813341
0.10716260171078344221
0.24601049362302399026
0.25846689571468761670
0.26974915355569767383
0.04257216349872682687
0.02128608174936341343
0.04268024898484325258
0.06396674944393235251
0.24404598244014139019
0.22428123064290983457
0.23315890806524586232
0.25689756799791951813
0.17706095160414500600
0.15301240981828700960
0.17385218666316226699
0.28671140214909934807
0.27500000000000002220
0.29999999999999998890
0.19286978186729544782
0.20980631042904485106
0.21509614201241139542
0.28484368418218430907
0.29626456406616991091
0.27172460096992373524
0.28300685881093379237
0.12726574465375781187
0.10631354002144784154
0.12811480634309341253
0.19607854680827818683
0.00000000000000000000
0.00000000000000000000
0.02128608174936341343
0.22957106222627637893
0.15216334812895140893
0.08472352859974896511
0.06364784604923789946
0.08504243199444341816
0.29050256065483692769
0.26727427154748917282
0.28012585710526727301
0.29827180801894420670
0.31156040586984484753
0.32312081173968970615
0.10599463662675338849
0.30969268790292980853
0.29389066185955425858
0.30714836711479032161
0.31803217016341078782
0.25320157969148981980
0.26235717694283827717
0.23872665947762483629
0.30426736540912385776
0.20474181081994591302
0.22375940602407909386
0.23242267003574679229
0.02119580161053773171
0.04248188335990114861
0.04239160322107546341
0.06355756591041221426
0.27642986879883757467
0.16138232276075389904
0.14432403370725585545
0.16922163718244945252
0.33656040586984481422
0.32499999999999995559
0.34999999999999997780
0.24738992348929253473
0.12609350533285040852
0.10540851696629968681
0.12667962499330409631
0.32095853653050776533
0.33438666036726771846
0.34565250899484567526
0.33184233957912823154
0.19057479866482018860
0.21825565788062109562
0.20408864572549539895
0.18273548424312463512
0.14373791404680213990
0.33870483447702032231
0.31460369756592865276
0.32836850232021552731
0.00000000000000000000
0.00000000000000000000
0.02119580161053773171
0.30052331566105017213
0.31054407066726341657
0.28645062380505081912
0.08445277643430511294
0.06342218982769029512
0.08458815251702703208
0.10527314088357775379
0.28236576132426710606
0.25739421568000697693
0.27236146913355269161
0.36153190885124120157
0.37306381770248242535
0.34809231472108603800
0.32462445257214189720
0.35935816334866405031
0.34264315509848353170
0.35645332451420097541
0.36725414003355627557
0.35297948725528827119
0.29645491599576523356
0.25450206854829338088
0.22929535713689438992
0.24346236929202008659
0.16700425553478492890
0.17262618830881598653
0.14935984682083319752
0.18835741701715569274
0.04241738487796112983
0.02120869243898056491
0.04240449404951829315
0.26843391493628021571
0.06343508065613312485
0.12605139816171700984
0.10525208729801105445
0.12607245174728370918
0.37500000000000000000
0.40000000000000002220
0.38653190885124122378
0.34884950817313675753
0.35899418186925319274
0.33476912626825827690
0.14933879323526649818
0.38446333202832905229
0.39586284635417562372
0.37075767767451062173
0.38155849319386592189
0.32096611752588066757
0.33138816438449791857
0.30687696285438248456
0.24087525035536819229
0.22724843216244300370
0.21566853894396920133
0.19993731023562949511
0.38744714592327728075
0.36307599020014880153
0.37735064297841680592
0.00000000000000000000
0.00000000000000000000
0.02120869243898056491
0.34519117312687552790
0.37322066389626523675
0.27938688361305580310
0.29331873000104269344
0.30427169867781822532
0.06360706928295915830
0.08462476506113114638
0.08479675368795717982
0.10542407592483710177
0.41175740929880888519
0.42351481859761780369
0.39828931815005008676
0.31782993153115807194
0.40968883247589671370
0.16679761490535049973
0.16096904150188501292
0.14351021983180101138
0.40688591518274519476
0.41790898401131482132
0.39258156202243554844
0.40267806496729607879
0.25251509855926440595
0.26614191675218956679
0.27778176495608580820
0.18775380669452049198
0.21506492862133400057
0.20288142508022499744
0.29102673181695204452
0.02133953509897419665
0.04254822753795475809
0.04267907019794839329
0.36950091935580503533
0.38000765684235687791
0.35569791061342737049
0.06373791194295277962
0.18192523329105500518
0.39720132669370822320
0.40695550746413922116
0.38297484466669617920
0.10602674077771154226
0.12665406301459145033
0.12725672786746589082
0.14411288468467545187
0.42500000000000004441
0.45000000000000001110
0.43675740929880890739
0.35352542234044670444
0.32889856050913246488
0.34245679336247231150
0.42175104087610482129
0.43557702699782596678
0.44763923539803407436
0.39348158215324802178
0.43277410970467444784
0.36676653959140181893
0.25240206297042422356
0.23982524756643361363
0.26509191396325504364
0.41146735371417231253
0.42669827275819105505
0.43548756150506728879
0.22764174402532461050
0.31586203099661597227
0.32745236331541371921
0.30261706413574973595
0.42122153448460325498
0.02133953509897419665
0.00000000000000000000
0.00000000000000000000
0.08569476028681120849
0.06418691524237979396
0.08524575698738419416
0.17610031798136868697
0.16853467974162683607
0.18949087153079685608
0.34048889282793021183
0.10647574407713855660
0.15167852292441730278
0.44895861792915181532
0.46220120863034291903
0.47440241726068582695
0.46102082632935992290
0.46080780252504305317
0.47397636965205208748
0.44594267683168342664
0.40398609253351158710
0.41746001784440278648
0.42796452822466629629
0.45473196557855966038
0.30191952877119071497
0.27716079587080744151
0.28985064686363826159
0.39123458448205927773
0.40246151212176162204
0.37799346723110416324
0.31468594604330224485
0.21562115571906340095
0.24038147466416301401
0.22836088635790180446
0.04302484456644326688
0.02151242228322163344
0.04285195738219582662
0.20223060216963523184
0.06435980242662724116
0.44413680375636110931
0.45278604600765498533
0.42987077673589713100
0.41521302017321393141
0.10776743634814284212
0.12854842013847017634
0.12984011240947448962
0.35216734474201821792
0.36520387425453471053
0.37688232616862271662
0.15297021519542158829
0.44037528711616064081
0.47499999999999997780
0.49999999999999988898
0.48720120863034288572
0.47390933987612549050
0.48729093080745133904
0.50017944435421690663
0.38967191914519216933
0.48707790700313446930
0.47422157708032486312
0.47446678450859758325
0.45497717300683243602
0.27695200524760671401
0.26467703410901544103
0.28943576700939871449
0.25265644580275425923
0.32669858732788958910
0.33946500460000106347
0.35147764588458840773
0.46362641525812631205
0.02151242228322163344
0.00000000000000000000
0.00000000000000000000
0.36417998602660556218
0.08607254499214675447
0.08645032969748228657
0.06473758713196277326
0.21015860857658189009
0.19312946327897528853
0.21925974746724186115
0.10814522105347838810
0.42681663825072280183
0.43956814630217511120
0.45117176437968398162
0.17478248652307393218
0.17346465506477920515
0.15165238373712686126
0.46406702636750779556
0.47534800672736060578
0.45165626747601345103
0.51252507763323573720
0.52505015526647147439
0.49972628626357862291
0.51261479981034419051
0.52921991055813677463
0.50159814010509440330
0.51469967745617684063
0.19181163182068056150
0.41434600909258112456
0.42623050606340068258
0.40155641611601167185
0.49363005770941315031
0.51328374576677415764
0.49387526513768587044
0.46325988555352226594
0.32630682664074200927
0.30162941594417436164
0.31411317770596636212
0.33889223626266518075
0.24024411577681964447
0.26453967522167209925
0.25212734519573748448
0.43870113522154230434
0.49725152571290381909
0.47501878586027940221
0.48585915511075072892
0.52125182816245541062
0.23114297688615970117
0.04327054727599460859
0.02163527363799730430
0.04314769592121893427
0.06486043848673844758
0.40109514549841490672
0.37628639569150168498
0.38898873583351878391
0.13013048565539028778
0.10829040767643628718
0.12998529903243238870
0.48629976622013221244
0.15179757036008473259
0.41366282578090779465
0.52499999999999991118
0.54999999999999993339
0.53752507763323564838
0.50526763573983901612
0.52551696934675817818
0.53795232480288546206
0.55085449433929944973
0.54003720244871811218
0.22104901743718780027
0.19725683625098350271
0.21560381300688485906
0.48769703982696444022
0.50004607292656833017
0.47560891865312615590
0.31374990190796686607
0.30119297717519172286
0.28907249121139921844
0.27666016118546460367
0.35114085813416373583
0.36372626775608696281
0.37597488962758551789
0.23658818131646264238
0.45092603818047105602
0.46339666733861267778
0.47562157029754137394
0.38853501756300024006
0.02163527363799730430
0.00000000000000000000
0.00000000000000000000
0.08677599490114655534
0.06502327108857058890
0.08661316229931442789
0.10845324027826841462
0.56048212931277119342
0.53688293753977267553
0.54485101993545392851
0.49940491487335147980
0.51035667436612308645
0.52346182301934229830
0.48783382161205485206
0.17379356477493090871
0.15196202521516061212
0.17362910991985505693
0.19742129110605935449
0.54468136068703332242
0.52096644319996854300
0.52898255322690368452
0.51175394797295536975
0.54995129578736023923
0.56242621815412452424
0.57485243630824911509
0.43849933642067917550
0.45076816677795761290
0.42593165613818628756
0.56285346532377422690
0.56378636432720163896
0.57671823431510393920
0.55296907243662030140
0.46319486853774949342
0.27551942114689748076
0.24828421929204264051
0.26382338317131748262
0.55258174499990220241
0.56860018181393756631
0.35089574285905589246
0.32604436001712377990
0.33860128474989892311
0.28835619916104460181
0.36343531624332070518
0.53407159185318775485
0.41343050095683869793
0.42576585641526248915
0.40087037302142403128
0.04334121612795950595
0.04341188497992440332
0.02170594248996220166
0.06509393994053547239
0.13067898793825841186
0.10872749141970247666
0.13040473679682434982
0.43826701159661007878
0.51265451412986950963
0.52526295533317068909
0.50044226281535597600
0.15223627635659464641
0.58742621815412454644
0.57499999999999995559
0.59999999999999997780
0.21580093967240890351
0.21055286190763000675
0.19217321334128045773
0.52488455112538823233
0.53659242617177516088
0.54972302932420813448
0.57498812267436971712
0.58698709365884460532
0.59912175100943998451
0.58791999266227201737
0.26387956177536170399
0.25223970240382592722
0.23664435992050686375
0.48807695499755821000
0.50053233969757504607
0.47565025323776632948
0.53749299232868941179
0.30066704703250202169
0.31350382504664919825
0.32581467291810661813
0.33835520788858125529
0.59986311830173189019
0.57227223949438266182
0.58017262380725154181
0.23139628215572796699
0.55936961264918072523
0.57405786461132823906
0.54875984381533526868
0.38835288290975988890
0.40073087619193420439
0.37581330952549507618
0.51289764751537281207
0.41324836630359834677
0.59934649116776328448
0.57991431024026729446
0.58803236274143366735
0.02170594248996220166
0.00000000000000000000
0.00000000000000000000
0.08687981979127513965
0.06514585238559977842
0.08682790734621084749
0.10877940386476678269
0.56189044696776813126
0.15397788904002229771
0.17553517745835856001
0.17727679014178621131
0.47562332781336519316
0.45069459211431384116
0.46319574729566137528
0.19391482602470810903
0.59960480473474753182
0.58696049145653006462
0.59944297331513130001
0.61201675516100673136
0.62403351032201348492
0.61157763066572679023
0.48807783375547009186
0.59902762233193218577
0.61022938067910015292
0.62133701034876043234
0.30113821947462149353
0.27668896093922368262
0.28832882031075945939
0.31347644619636405583
0.35076121294166906495
0.36330174791214370211
0.37570775296523151177
0.61034175075826180290
0.55027306273222043043
0.56250309972773915312
0.57528317013127017177
0.38821931457858283032
0.55042812642544869384
0.52548023306151181444
0.53784554087930969146
0.43819830556619032702
0.45063075471711810938
0.42568081545452618464
0.21967616552794994034
0.24051958577604792833
0.22879946914826990167
0.04363670887064369230
0.02181835443532184615
0.04352429692528404781
0.46312704126524162351
0.06525826433095940904
0.58720082482156199521
0.60034378503179575137
0.57503340717800188742
0.12952153199639460102
0.10820067589383486339
0.13010025996732649256
0.15339916106909040616
0.20303812964502804261
0.56285564827835943280
0.62500000000000000000
0.65000000000000002220
0.63701675516100675356
0.61317077323973423475
0.62647842817773657931
0.60026814639453240918
0.58781347758153290606
0.61887515480480148611
0.63840381844183979876
0.61913346837178584448
0.62297681894460199548
0.63543269860088869017
0.64683188687976400644
0.63408444861426227490
0.52553079374728328688
0.50057706078032426777
0.51303156672242922198
0.26454172296873290637
0.28899098150413071728
0.27684374353363988552
0.62987041439530011555
0.53797946008636599036
0.35078383573259941386
0.32596102760361045370
0.33829925432535301599
0.36324579434891546281
0.25282160634095490748
0.61341110660476616534
0.41317296125204017176
0.42561504631214619465
0.40066139963868885321
0.43812290051463215201
0.02181835443532184615
0.00000000000000000000
0.00000000000000000000
0.64115110478008374706
0.62784344984208140250
0.65582378138243091481
0.64711379991213535678
0.06554545232556421852
0.08716700778587993526
0.08745419578048474474
0.19073035534000015723
0.21649169484324198853
0.20418392053821410315
0.50056378853701943843
0.47559727162706877390
0.48809355817519228804
0.10848786388843967288
0.17056395339007565659
0.16385111663836510187
0.14668632431737985145
0.58784559098344169037
0.60040801183561332000
0.57541806913053106243
0.66163288071308279381
0.67326576142616556542
0.64864963587408952517
0.51304729114215130714
0.66004882415296473042
0.61291978801501434404
0.62549579099823293671
0.60038948056475160975
0.65296450812714224021
0.64443110408060255700
0.66752519781244468167
0.65717854234610428854
0.18401751858828960251
0.31357106676364365772
0.32600391405266587741
0.30142382879315288147
0.33839387489263261788
0.56294524487188268846
0.57546236331831668309
0.55049657853279998498
0.38816395181897134226
0.40062015067271117275
0.37570199320265529330
0.41311759849242868370
0.65110811244652977425
0.62572594873916276281
0.63879327031213317678
0.61295190141692312835
0.25210325576052161622
0.24045136245439574507
0.26447349964708077863
0.46309367381718413714
0.47555659291725010940
0.45058581961469812427
0.58793518757696494603
0.02208004561014652659
0.04389840004546836927
0.04416009122029305317
0.22814358814936785969
0.48806019072713480167
0.06580714350038889549
0.13124066844793280673
0.10934743211420877573
0.13038110022216370387
0.63830195172238135548
0.67787438056789606211
0.65217640437281632071
0.66684908097516348846
0.14754589254314895430
0.66248985321277564786
0.68657588798371149696
0.67119983468307120589
0.67500000000000004441
0.70000000000000006661
0.68663288071308281602
0.55050467590265628193
0.52553423221983786018
0.53801773482496972889
0.67705054289807808932
0.66449124650721291818
0.67116205644577475731
0.68437899371897559231
0.69549222601178561920
0.68150871191211515043
0.56298351961048642700
0.28899211621618980939
0.31357220147570286084
0.30114048889873978876
0.36322746557808394119
0.37567109542356841301
0.35083750473811714521
0.17052738462768840533
0.19069378657761290596
0.17720365261701170878
0.38814562304813982063
0.27662187232963070249
0.45054050244739007880
0.42558032656005062577
0.43807777437976813673
0.46304854768232006634
0.65030217360872044630
0.62535509272216693866
0.63789898230347663599
0.02208004561014652659
0.00000000000000000000
0.00000000000000000000
0.62533998825699976809
0.60040117578765817008
0.61287400004630654404
0.21514307696698287131
0.23910274457813662785
0.22610223339575161172
0.15422216053247225775
0.06677373134485667383
0.08842078362495250921
0.08938737146942028755
0.11031401995867654020
0.69191051857541108205
0.68088521898267850840
0.70594665658292610200
0.69626127228331879948
0.51303616367156068545
0.52550853880610193247
0.50053256586167604869
0.67550094154464856988
0.65049836627144075329
0.66330452699558917207
0.20165294300638164637
0.53800660735437910720
0.69815356864273714343
0.71152068792965450506
0.72304137585930883247
0.63782108093286016270
0.70926680093554717033
0.70146376930458576027
0.69193842421895235262
0.71635165062546013459
0.70592193831862282138
0.68948957699730306636
0.70110477342671007062
0.67610644293661992243
0.66290155757668456360
0.58793838076765581047
0.60041439821699493784
0.57545953705982566539
0.32592646244255035759
0.33835817501951337416
0.35071243598636092642
0.36319176570496469747
0.41307702807460588978
0.42553390547650060682
0.40060250045003453767
0.61287719323699740848
0.43803720396194534281
0.28845646227650523219
0.27577243565427062011
0.26393784570739609041
0.47551595001467511503
0.48802399524960515809
0.50049139758196015126
0.68830285748567932025
0.25093733452501110204
0.14007335563402750767
0.13565701204098015720
0.15863850412551960822
0.04449249267480472753
0.02224624633740236376
0.04432629194754889035
0.51299996819403104187
0.06693993207211250407
0.11473036355172389067
0.70247183777984945063
0.71650797578736447058
0.72706929499180283916
0.73544703305539560478
0.72069684481916085339
0.71101146051955355087
0.71408703420925645489
0.56297370435427684932
0.57544273280589741670
0.55047563580599967459
0.72589934184042781418
0.72500000000000008882
0.75000000000000011102
0.73652068792965441624
0.18747517114673695193
0.21192446153610688953
0.19774668967646219508
0.58792856551144612176
0.67502099388208203212
0.65018049106954090011
0.66266158374540129472
0.72057221541153904099
0.73434679033530070313
0.74565220481129257379
0.73100192771837635419
0.69991289113762655827
0.67510753237317344677
0.68770691634113756407
0.32558723646133008733
0.31336386268003491029
0.33814983622384553463
0.37562048936949388178
0.38809981908809759732
0.40052854275262678163
0.30067983605780035372
0.16891002265524485138
0.41303122411456372198
0.45050164777376916492
0.46300494625921390091
0.47546939007103772301
0.48798039382649893714
0.65022814135833117977
0.62532126978766311431
0.63778406480766547393
0.70031285928601127999
0.71311477522704214138
0.72512477702737410112
0.24955284411604630734
0.23782753875589895953
0.26266263988515847760
0.68746694250985429520
0.02224624633740236376
0.00000000000000000000
0.00000000000000000000
0.11444841405167285875
0.08882347246931820983
0.08910542196936924175
0.06665798257206147215
0.66262456762020660594
0.52546433730894492875
0.53797290792101581935
0.55043727703592970624
0.22364976689625426509
0.74011381118241548194
0.72955249197797711336
0.75315832737302812472
0.74430268021421186475
0.56294000492091356147
0.71251883408250038521
0.73864166357619187586
0.75021403216058091257
0.72565940279364549159
0.75134783192500576021
0.74180014071003808063
0.76724863079461591564
0.76180934915467979351
0.77361869830935947601
0.74833003708433420975
0.75963545156032608041
0.75645041780295430023
0.62532258999253731435
0.60038266139921736553
0.61286849410476618161
0.73766940459397756236
0.35053097565097968147
0.36309357541349507326
0.37547471484062927560
0.38800162879662802862
0.63777536567543424706
0.15519319428182637433
0.18402986130304371803
0.17031303292962521323
0.42548702010725969469
0.43798970146919657953
0.45044549746189260775
0.46295744376646519314
0.31285813115394134343
0.30012902584655259952
0.28795073075041160982
0.51295586999478226531
0.52542034240760449038
0.50044486623932105118
0.27484093498129946731
0.71208486370957846390
0.72425683628153036953
0.69963891508180620082
0.53792880972176715382
0.04448866003027168725
0.04448482738573864698
0.02224241369286932349
0.06665414992752842493
0.12545630517461400788
0.10713988882196610886
0.13276483040432074390
0.68743326122499914810
0.69984552856791637510
0.67503683496312372192
0.23622330466882673905
0.22289376522160719851
0.21032022744903469680
0.77451158417985610516
0.75079043958582947216
0.76383495577644211494
0.76236280817021850886
0.14788466905211961055
0.58789028267404008776
0.60033783254218275882
0.57538755478905623253
0.78349599447428130983
0.76832716092365471727
0.75947151376483845731
0.74918457874939292651
0.72454873494350979790
0.73715467788838351382
0.77537231263444861273
0.61283021126736003659
0.19660339907561619199
0.77500000000000013323
0.80000000000000015543
0.78680934915467981572
0.71205118242472331680
0.77176612064114036293
0.79788003647098826310
0.78256433363280208937
0.78574936739017386955
0.77498943954931875933
0.75005710828834648574
0.76260173585494983595
0.73672070751546159251
0.33794361937733130574
0.36288735856698095539
0.35030000229333257966
0.41296770663360482523
0.42540687051458281331
0.40044079267760601670
0.32521451406994261735
0.43792618398823768278
0.67514892952766125678
0.65023575976009928556
0.66268853544299621827
0.48793299393221178928
0.50039659779338585555
0.47542104762763925940
0.51290847010049511745
0.27436392381546992336
0.26195838396575810147
0.28724647483101128920
0.68749722904778876043
0.76208700914935589843
0.02224241369286932349
0.00000000000000000000
0.00000000000000000000
0.55038280245539561442
0.56289126976955827786
0.57534526250318684948
0.24862884451853856094
0.08875442511649345168
0.06661962625111604586
0.08878894879290583075
0.10710536514555372978
0.58784154752268480415
0.78367129923207123898
0.77299467082865724876
0.79283101428428637281
0.78816350437928384132
0.77454676687780876776
0.78669554288744636406
0.79887950159503662295
0.13890495871630501035
0.13218063194545950911
0.15460899582296511179
0.82454913043713762288
0.80402256245570946636
0.79589888061587676926
0.78693447057217769114
0.65012765726481736017
0.62523274490350000399
0.63772512362867739277
0.81121458345406294299
0.19622133355445681158
0.18326718324204099853
0.20955754938803200504
0.79927848119393418713
0.81246913203925452684
0.82493826407850889826
0.81140915027474858068
0.72429936122654914321
0.73650501508335608492
0.74875319388518180030
0.66263829339623936399
0.38790166584881302647
0.40032861685699677734
0.37531430957516465075
0.41286774368578982308
0.74843037856959138132
0.76089424980352271533
0.77260392085765239312
0.45038503964038223426
0.46290435311403715923
0.47536320876618171072
0.32497914979866371343
0.31255408782260818423
0.33763957604599814655
0.48787990327978381089
0.16756314613538092484
0.11382969191639923101
0.29967153680706681840
0.53788204394405425557
0.55034374548050402076
0.52537017163694499366
0.56284450399184549063
0.72532336129307906081
0.70023614541037015879
0.71258444493049766244
0.04465086652982393212
0.02232543326491196606
0.04456784695778129302
0.06670264582315868496
0.77371373978800539462
0.78661617018796836653
0.79824290082661786272
0.76067855737141709671
0.26147150708232019811
0.24857909034917050062
0.23573642778538883569
0.62517973331327680864
0.60026249790823182906
0.61275878292772978373
0.79996296623465168452
0.80912268128686681834
0.82541434828944737490
0.73703827758913043056
0.81214692494224194341
0.22240021195181364222
0.80571017284371171385
0.82792435121314211788
0.81037768274871424534
0.63765369528904702889
0.82623674082513987038
0.78542341084213518343
0.80180149002435829875
0.81374652104721723056
0.82861354049939783817
0.82446761361131293278
0.85105519075163771348
0.83780216059438772369
0.82500000000000017764
0.85000000000000019984
0.83746913203925454905
0.83799672741507325036
0.68741832939018310267
0.69968772925270494856
0.67490769325876120988
0.38775991580268576175
0.37519121474837469066
0.36274560852085363516
0.11433990595983090088
0.08977485320335677754
0.08926463915992510767
0.81342822066300790596
0.43786031665055602513
0.45031376278652918144
0.42532118982176297939
0.35008518227351920205
0.46283848577635544608
0.71250554527289200468
0.52532526185865824342
0.50034423531242000482
0.51286092982602204948
0.53783450366958107658
0.17250469031104989637
0.15570482451367745336
0.18436301193275334009
0.29959538645696237591
0.28697965513621614964
0.31228726812781304467
0.82666934975129469088
0.06721285986659035483
0.57529466991319133662
0.58779542842453280649
0.60024559434587865248
0.27408723840306642439
0.02232543326491196606
0.00000000000000000000
0.00000000000000000000
0.61271266382957767505
0.79054593805499007164
0.76964956597008593597
0.78157492945632123238
0.83273922987419113362
0.84006411145893478132
0.81947180652698570213
0.75246617382884539715
0.76418109012489676690
0.77960898636461173350
0.83433882597916630974
0.66245881846060017395
0.67478997965638309875
0.64998485648482995369
0.23600041964897500169
0.22342174894877950275
0.20982154125161817104
0.84759859270986392943
0.87064805498259023597
0.84928620309786617693
0.68723885445454402365
0.82453384564762244313
0.79856888325263741812
0.81138837323712009741
0.87357078227140316784
0.84905995635427045087
0.86231298651152044066
0.86398698606433632641
0.85092852272777197431
0.87691878137703505036
0.86345939068851762510
0.13372852280201213970
0.12855208688771929681
0.10916347004553803024
0.19796321962991469956
0.15052838859938461047
0.78507746220980090257
0.42524145016753339688
0.40021633245795407152
0.41278503351226508711
0.43777760647703128916
0.83973367588966252306
0.81898828835814019289
0.83417360819453012510
0.80753989185130625739
0.35000889168692939091
0.33749402074279655217
0.36260005321765204078
0.87210941862699664640
0.72407346900618618779
0.73689128502637324392
0.74845920875966742702
0.47530150270413573654
0.48782622569396194567
0.50028924262174223614
0.51280725224020029529
0.84816107221749748035
0.84941607367934479633
0.87090779614554747479
0.32480213907194588341
0.04465032677533155997
0.04465059665257774257
0.06721258998934416529
0.55030002424256752036
0.56280926605349046454
0.57527478662647690832
0.58776019048617778040
0.76403409756213958026
0.02232516338766577998
0.26146412720468331647
0.28697227525857926800
0.27434916406019610458
0.83213376076864253861
0.63760348929097165893
0.65002724526866650923
0.62513641980727263636
0.24888545650448778979
0.66240861246252480399
0.87077792556406885538
0.84941047209248554672
0.87340659589552382958
0.85673535367722930545
0.85729689666423403160
0.87452968186953317087
0.85157161118446556003
0.72385761506907930762
0.69932379736273120319
0.71177267216089212809
0.89094442003208063063
0.87968662427219790345
0.90831805779275820445
0.89261841958489662741
0.87215719602053565218
0.87500000000000022204
0.90000000000000024425
0.88845939068851764731
0.85709083617098702490
0.85153076847585473796
0.87444799645231163776
0.21112964225171920729
0.19883753555465891183
0.18567111293285440410
0.73615841191437336732
0.09267628255030151141
0.09122556787682914448
0.11061418471901041105
0.41269456340698251751
0.40014767664643158263
0.38766944569740313664
0.80879269704651390871
0.82703945603803774578
0.80332422120132473964
0.37507828416668048677
0.47523877526287111595
0.45024011271520225641
0.46277626902470014869
0.87448883916092245983
0.82578665084283009445
0.06866330466281653222
0.16045342976066359619
0.14840216921027729602
0.13847712804899831029
0.48776400894230664829
0.31221992348430099851
0.33742667609928450601
0.32484446051163962110
0.55026243471760794002
0.52527583866967508808
0.53779384828813303621
0.87396813888252844471
0.56276861067204242417
0.89340631288061023163
0.91324184348981718440
0.89194494923620371019
0.29959681228591783508
0.00000000000000000000
0.00000000000000000000
0.02232516338766577998
0.62518825443639680639
0.60023152053143680185
0.61271692439113767392
0.78480945236625632155
0.79000991836790102063
0.76923456356378427934
0.17361985238246810392
0.63760774985253165781
0.84883583023318431859