VARIABLES = "X", "Y", "P", "U", "V"
ZONE NODES=145, ELEMENTS=248, DATAPACKING=BLOCK,
ZONETYPE=FETRIANGLE
0.00000000000000000000
0.26269183200663392963
0.00000000000000000000
0.52538366401326785926
0.26269183200663392963
0.00000000000000000000
0.39062410191334268061
0.78124820382668536123
0.65331593391997655473
0.69727957803124329672
0.34863978901562164836
0.61133162102225557799
0.87380666799979156423
1.00173893790650025970
1.22222967198631526919
0.95975462500877928296
0.00000000000000000000
0.00000000000000000000
0.34863978901562164836
1.23950775551599789992
1.69776730720531054963
1.45999848959581290941
1.43985751495284253210
1.65748535791937001704
1.17738246797530665688
0.47393695763729282167
0.82257674665291447003
0.94787391527458564333
1.30267963659697771917
1.74527779221235501694
1.98304660982185287921
2.26832591243839498674
1.96290563517888250189
0.00000000000000000000
0.47393695763729282167
0.00000000000000000000
2.56111455329475168341
2.27583525067820957588
2.85390319415110838008
1.56655040223360098040
1.92135612355599305623
2.18522688919261609541
2.66960233450654094156
3.07087875657468689639
2.36418205724702845671
0.71177281537838477110
0.35588640768919238555
0.82982336532648526273
2.62805282288365127386
3.61083534262329308717
2.93958062753084403695
3.23236926838720073363
1.29372206712710702270
1.91239855408612235976
1.63957021897962840207
3.34085704959898999178
1.17567151717900664210
0.00000000000000000000
0.00000000000000000000
0.35588640768919238555
3.37161682134638107655
2.77842185526949858598
3.22124778896053420851
3.97898717379244581949
3.60052109955635346594
4.34713900496159855180
2.23165819826783629054
2.50448653337433002619
2.82374617755604395697
4.15988739424918030352
4.70893944587506663169
3.88990910122487676404
3.09768149945121251676
0.96868298363146787544
1.43258168543208963541
1.22559315188455086876
0.61923269801681357638
0.52669258065524238166
0.26334629032762119083
3.98985597631216837300
3.83948694392632150496
4.60809513127795611354
4.65851728857651181670
0.87614286626989668072
4.29722413515761481051
4.66537596632676798691
4.98361292769193742203
4.84627618678350202686
2.23214166761371668457
1.93585594329667243230
2.52794392258488009873
1.72886740974913388769
3.92018734125874512841
4.46875786117110873619
3.64625201936357612453
0.26334629032762119083
0.00000000000000000000
0.00000000000000000000
4.53842649622453286895
5.63180646384596883536
5.31356950248079940025
6.28000000000000024869
6.28000000000000024869
5.44404756563897862520
5.49446972293753344019
1.01001258934932236500
0.79443202681409375021
0.66056230373466806594
5.63180646384596883536
6.28000000000000024869
5.49446972293753344019
3.18705081637930032201
3.55035545520255624297
2.89124856140813646377
4.00955665818683293367
1.72148110949411781156
1.47353713068933434016
1.97681138855391713705
0.39721601340704687511
6.28000000000000024869
5.44404756563897862520
6.28000000000000024869
5.37437893058555449244
6.28000000000000024869
1.25795656815410583640
6.28000000000000024869
3.22224789127819200019
2.89414032735382820150
2.56314099748377266508
2.30781071842397311755
4.71886325477953327834
4.96896864838795782049
4.25966205179525658764
5.37437893058555449244
6.28000000000000024869
6.28000000000000024869
5.62448432419397903459
4.42506476505702295299
3.65960254620542535520
3.98771011012978959798
4.69701670672248994265
5.62448432419397903459
6.28000000000000024869
6.28000000000000024869
5.35253238252851204493

0.00000000000000000000
0.18063911096304399728
0.28860418584165375977
0.36127822192608799456
0.46924329680469778481
0.57720837168330751954
0.00000000000000000000
0.00000000000000000000
0.18063911096304399728
0.89035124309508906215
0.73377980738919834636
0.62581473251058850060
0.40598723856934643139
0.22534812760630243411
0.45069625521260486822
0.67052374915384693743
1.36104542710047038412
0.96912689939188889632
1.12569833509777961211
0.00000000000000000000
0.00000000000000000000
0.22534812760630243411
0.78760681757124040292
1.12451737992987599313
1.00743431151248241662
1.64745353234473368431
1.41210644034204313435
1.93386163758899720655
1.52918950875943648882
0.49684641831850429039
0.27149829071220188403
0.54299658142440376807
0.83375698067713988060
1.94634763260243359717
2.23275573784669711941
2.53164983810439681022
0.27149829071220188403
0.00000000000000000000
0.00000000000000000000
2.00245439979794381813
1.59778227096838310040
2.07104716200689020766
0.93267499072340931399
1.32235340002241485990
1.22343538997614542652
3.46387084779720177963
2.99776034295079929493
2.69886624269309960411
1.69670028101465253378
0.56498194871665319283
0.55398926507052848045
0.28249097435832659642
2.56586543723516413706
2.63445819944411052660
3.19786923688133128962
0.94366767436953402637
3.33087004233926631258
4.18506485245430503994
3.35835734527935070304
3.82446785012575318774
2.29064345087420750957
2.18084530644054908066
1.80649842544831118474
0.28249097435832659642
0.00000000000000000000
0.00000000000000000000
3.20855398543054004534
2.64514294799331928232
3.21923873397974880106
0.84859238802999825690
1.13220282734334332098
1.22727811368287920146
2.75494109242697815532
4.09255205917387510084
3.95955125371593963379
4.72123327055054797796
4.20606191077786206733
4.94825297375852279913
4.56665891310641391954
2.14404735415354474881
1.65990232872764842398
1.99745125743288176601
1.56482704238811254349
4.83474312215453494446
0.53169440295878112046
0.24920342860045457956
0.49840685720090915911
0.81530484227212629555
4.61440767055049771983
3.90613845371591450473
3.91682320226512326045
4.66782047055052284890
2.77012142662595017839
3.24959940237769284721
3.23441906817872082414
5.61412648687926107982
6.28000000000000024869
5.23253242622715220023
2.62352532990528741763
0.24920342860045457956
0.00000000000000000000
0.00000000000000000000
1.66898886376064781167
1.83322006059676478884
1.40059584555199556632
5.50061663527527411333
6.28000000000000024869
5.61412648687926107982
0.65528287294582521216
0.81215888869074126521
0.97218085801704234861
3.91565622330031359866
4.61207371262087839625
4.61324069158568761395
3.93083655749928562173
6.28000000000000024869
5.50061663527527411333
5.44720383527524898426
6.28000000000000024869
1.24057387622569459396
2.34901236743257246786
2.70057347743226339176
2.97508643990497834153
0.40607944434537063261
6.28000000000000024869
2.18478117059645571274
5.44603685631043887838
6.28000000000000024869
5.44720383527524898426
6.28000000000000024869
4.02650307235104065740
4.80340674232438846758
4.70774022747263387600
3.69753668516047495629
3.42302372268776000652
4.14547396794325706537
4.47444035513382232239
6.28000000000000024869
6.28000000000000024869
5.44603685631043887838
5.54170337116219435813
5.54170337116219435813
5.21273698397162910112
6.28000000000000024869
6.28000000000000024869

-2380138831879204359083393024.00000000000000000000
-2380138831479360908328697856.00000000000000000000
-2380138830916491494134120448.00000000000000000000
-2380138831079517457574002688.00000000000000000000
-2380138830516647768501518336.00000000000000000000
-2380138829953778354306940928.00000000000000000000
-2380138832110536932643045376.00000000000000000000
-2380138832341869781080604672.00000000000000000000
-2380138831710693207010443264.00000000000000000000
-2380138831802044481336770560.00000000000000000000
-2380138830877911555260809216.00000000000000000000
-2380138831440780419699572736.00000000000000000000
-2380138831605026566168379392.00000000000000000000
-2380138832236202865360633856.00000000000000000000
-2380138832130535674762756096.00000000000000000000
-2380138831966289803171856384.00000000000000000000
-2380138833461840846348353536.00000000000000000000
-2380138831707809462888693760.00000000000000000000
-2380138832631942663842562048.00000000000000000000
-2380138832365562882269642752.00000000000000000000
-2380138832389255708580773888.00000000000000000000
-2380138832259895691671764992.00000000000000000000
-2380138831377752839782662144.00000000000000000000
-2380138830624970279680475136.00000000000000000000
-2380138831213507517947576320.00000000000000000000
-2380138832183601954209923072.00000000000000000000
-2380138831353703496826224640.00000000000000000000
-2380138830905363336949399552.00000000000000000000
-2380138830765166808314937344.00000000000000000000
-2380138829919787502090059776.00000000000000000000
-2380138830049147793876975616.00000000000000000000
-2380138827709039879173177344.00000000000000000000
-2380138829167004941987872768.00000000000000000000
-2380138832205566073364283392.00000000000000000000
-2380138830927327181225852928.00000000000000000000
-2380138830949291300380213248.00000000000000000000
-2380138829902326157929349120.00000000000000000000
-2380138832242434072633147392.00000000000000000000
-2380138832095612436685520896.00000000000000000000
-2380138830739146865643618304.00000000000000000000
-2380138830598949787253342208.00000000000000000000
-2380138830572929569704116224.00000000000000000000
-2380138828896503091322421248.00000000000000000000
-2380138830083966853227479040.00000000000000000000
-2380138830354468429015023616.00000000000000000000
-2380138828852646046391599104.00000000000000000000
-2380138829900968810824859648.00000000000000000000
-2380138829879004691670499328.00000000000000000000
-2380138830328448486343704576.00000000000000000000
-2380138832262884714031874048.00000000000000000000
-2380138829985962159163572224.00000000000000000000
-2380138832179248712797650944.00000000000000000000
-2380138831694685692099559424.00000000000000000000
-2380138831528469495671685120.00000000000000000000
-2380138832484008597005533184.00000000000000000000
-2380138831173425921068630016.00000000000000000000
-2380138830668327596576473088.00000000000000000000
-2380138831505947374366228480.00000000000000000000
-2380138831227619749690081280.00000000000000000000
-2380138830179296985256820736.00000000000000000000
-2380138830433347393191673856.00000000000000000000
-2380138830503138344008941568.00000000000000000000
-2380138830258656710892716032.00000000000000000000
-2380138831500150749064593408.00000000000000000000
-2380138831416514747830370304.00000000000000000000
-2380138830737416509219405824.00000000000000000000
-2380138831914019020387385344.00000000000000000000
-2380138830958479094419816448.00000000000000000000
-2380138831344029718647144448.00000000000000000000
-2380138831891710479215624192.00000000000000000000
-2380138831520535694643560448.00000000000000000000
-2380138830802251136496566272.00000000000000000000
-2380138830888688693358362624.00000000000000000000
-2380138829301910345791569920.00000000000000000000
-2380138831117591071342723072.00000000000000000000
-2380138829751173820557819904.00000000000000000000
-2380138829644299915948457984.00000000000000000000
-2380138830435953235749502976.00000000000000000000
-2380138830970950305057865728.00000000000000000000
-2380138831785273355600396288.00000000000000000000
-2380138831610583497935159296.00000000000000000000
-2380138833137199867764932608.00000000000000000000
-2380138832328868056082153472.00000000000000000000
-2380138830093564215348428800.00000000000000000000
-2380138830431455958313992192.00000000000000000000
-2380138829668721168712990720.00000000000000000000
-2380138828600026103084482560.00000000000000000000
-2380138830060280898864021504.00000000000000000000
-2380138830055637661259923456.00000000000000000000
-2380138831269822854254821376.00000000000000000000
-2380138830699833827392487424.00000000000000000000
-2380138829903405878347825152.00000000000000000000
-2380138829928012948577452032.00000000000000000000
-2380138829422678503963230208.00000000000000000000
-2380138830383354248744140800.00000000000000000000
-2380138830599921755532296192.00000000000000000000
-2380138830763890275315089408.00000000000000000000
-2380138831134918824840658944.00000000000000000000
-2380138831279939185864081408.00000000000000000000
-2380138829428971558764806144.00000000000000000000
-2380138830497667174149128192.00000000000000000000
-2380138830257917014445129728.00000000000000000000
-2380138830750369580828327936.00000000000000000000
-2380138831943784724296630272.00000000000000000000
-2380138831135452637735944192.00000000000000000000
-2380138830291761906493423616.00000000000000000000
-2380138830832349992429027328.00000000000000000000
-2380138830634151476650311680.00000000000000000000
-2380138829756146636772343808.00000000000000000000
-2380138830912267170460205056.00000000000000000000
-2380138831216401432551882752.00000000000000000000
-2380138831368678845196533760.00000000000000000000
-2380138831393327696868016128.00000000000000000000
-2380138830724483228819783680.00000000000000000000
-2380138830408003100415623168.00000000000000000000
-2380138831579070670049378304.00000000000000000000
-2380138830665122245303599104.00000000000000000000
-2380138830817354028215697408.00000000000000000000
-2380138830798120271311011840.00000000000000000000
-2380138830831318375644266496.00000000000000000000
-2380138832741072216556306432.00000000000000000000
-2380138832344944290469773312.00000000000000000000
-2380138830883810984899641344.00000000000000000000
-2380138830585092367330574336.00000000000000000000
-2380138831205710331239202816.00000000000000000000
-2380138831547656798210097152.00000000000000000000
-2380138830722174804157267968.00000000000000000000
-2380138830051021911446519808.00000000000000000000
-2380138830053329786353221632.00000000000000000000
-2380138830815046153308995584.00000000000000000000
-2380138829419939070742626304.00000000000000000000
-2380138829417199912399929344.00000000000000000000
-2380138830405263392317112320.00000000000000000000
-2380138830826111088575119360.00000000000000000000
-2380138832287244394145251328.00000000000000000000
-2380138832229544497820729344.00000000000000000000
-2380138830823371930232422400.00000000000000000000
-2380138831383140996514578432.00000000000000000000
-2380138830717081591419502592.00000000000000000000
-2380138831388234209252343808.00000000000000000000
-2380138830400170454457253888.00000000000000000000
-2380138830165395859746848768.00000000000000000000
-2380138831571567877579341824.00000000000000000000
-2380138830913591532215861248.00000000000000000000
-2380138831148366401804173312.00000000000000000000

0.00000000000000000000
-4442451143999.76855468750000000000
0.00000000000000000000
5427376601418.28125000000000000000
1578015213864.40649414062500000000
0.00000000000000000000
0.00000000000000000000
0.00000000000000000000
-7076664193956.21777343750000000000
-7962765959613.44726562500000000000
9773579911742.81445312500000000000
-1507405829013.45971679687500000000
-22442298166091.96484375000000000000
-5993199251459.45214843750000000000
-21891462128640.78515625000000000000
352335485612.17456054687500000000
0.00000000000000000000
0.00000000000000000000
-305713749046.35217285156250000000
0.00000000000000000000
0.00000000000000000000
-16454083018759.12695312500000000000
-16299422815430.65820312500000000000
13739687027558.13867187500000000000
2716902704290.97216796875000000000
-15380435699702.13281250000000000000
15964547549344.19921875000000000000
1520619325832.00537109375000000000
19552843824734.30078125000000000000
4762045176226.70800781250000000000
-10764336436908.58398437500000000000
29937598234704.53515625000000000000
9196841208207.96875000000000000000
0.00000000000000000000
15486903552439.37890625000000000000
0.00000000000000000000
33117733995436.74609375000000000000
0.00000000000000000000
0.00000000000000000000
1714797229409.77246093750000000000
-10936721582432.69726562500000000000
10955143705949.27539062500000000000
1657531628134.20971679687500000000
-29212938281855.20312500000000000000
-11067212340024.25390625000000000000
12106251901012.04101562500000000000
-25340881143041.74609375000000000000
-16157516075993.45507812500000000000
8890951990988.87304687500000000000
-3862426162712.08251953125000000000
11202108062203.02343750000000000000
-423119503825.60992431640625000000
1338373205705.15600585937500000000
-14887164145413.14062500000000000000
-817427851363.03332519531250000000
-16795330286318.09179687500000000000
7115400913015.30468750000000000000
0.00000000000000000000
0.00000000000000000000
36521780918919.31250000000000000000
1324632439041.58813476562500000000
-13645463520969.10156250000000000000
-23486842462420.47265625000000000000
-8638132847524.07519531250000000000
0.00000000000000000000
0.00000000000000000000
61655777927.78714752197265625000
9897047224900.91015625000000000000
-4431931832987.82324218750000000000
15379583971018.34375000000000000000
7151198775617.80761718750000000000
2144534668092.60473632812500000000
-1894190109298.36547851562500000000
-2276598271480.43457031250000000000
22424208997968.00390625000000000000
-5965077432976.12695312500000000000
24882815901333.54687500000000000000
-25703801232046.23828125000000000000
-22315785050251.67968750000000000000
-1657624150989.42846679687500000000
6662052529203.77441406250000000000
18684573744495.39453125000000000000
10009642826535.49414062500000000000
-17806200034681.24609375000000000000
-4770899722507.12500000000000000000
8474606647588.72070312500000000000
8673965767679.09960937500000000000
6545909240314.14941406250000000000
-9566625892611.29492187500000000000
4988372520427.82128906250000000000
1073155346999.39270019531250000000
-7147929017043.78222656250000000000
2432053912062.22851562500000000000
-4983734572245.31152343750000000000
8541957827898.61425781250000000000
9073000476436.38281250000000000000
0.00000000000000000000
0.00000000000000000000
87407856413.97073364257812500000
-1675058215072.07177734375000000000
0.00000000000000000000
0.00000000000000000000
0.00000000000000000000
1010274298198.68041992187500000000
-13895976155577.38671875000000000000
21240190151144.56250000000000000000
0.54806971712323737655
-3322664051373.96044921875000000000
-2780996764694.04736328125000000000
0.00000000000000000000
-808949024059.57324218750000000000
-6998155862100.15917968750000000000
4778709541463.41210937500000000000
4308006241507.31494140625000000000
-10054689245102.68750000000000000000
-8.75233481392658951847
-17244973545844.89062500000000000000
3613591472294.62744140625000000000
0.97175435732020232216
0.00000000000000000000
-8711839326151.27734375000000000000
0.00000000000000000000
-4436064252100.64062500000000000000
0.00000000000000000000
-1.79974421243246496260
0.00000000000000000000
-8673278555391.40234375000000000000
-74.46309360060327264819
9268270440721.12500000000000000000
-29.87685290715092989444
9516982411616.23046875000000000000
2173330793344.50708007812500000000
-515916365989.60168457031250000000
12939179987449.82421875000000000000
0.00000000000000000000
0.00000000000000000000
-12336179656717.52734375000000000000
-396.23760429057944065789
-187.61008882173535994298
3404122225502.83349609375000000000
-2119262409100.10498046875000000000
2367158881209.26806640625000000000
0.00000000000000000000
-1554.38739456000007521652
-831.92872708586867247504

0.00000000000000000000
33295505759511.08984375000000000000
0.00000000000000000000
-69551754851815.35156250000000000000
-4852297944319.38574218750000000000
0.00000000000000000000
0.00000000000000000000
0.00000000000000000000
-6995004512440.08691406250000000000
19226770669976.29296875000000000000
-10502034302463.17578125000000000000
33791611286859.17578125000000000000
4571168072731.14453125000000000000
18052575292447.73828125000000000000
12158416599459.62890625000000000000
36534933511360.89062500000000000000
0.00000000000000000000
0.00000000000000000000
-1798168982365.04492187500000000000
0.00000000000000000000
0.00000000000000000000
-7839261850526.85937500000000000000
-62568210457532.39062500000000000000
18381510957805.72656250000000000000
21259751125086.38281250000000000000
-7709267554245.83300781250000000000
11125320646817.55078125000000000000
7018859184404.21777343750000000000
-6371583053788.12500000000000000000
-16842276102624.19531250000000000000
-12545379414441.59375000000000000000
2701522945753.27246093750000000000
-21913184243811.01171875000000000000
0.00000000000000000000
3241611188213.05224609375000000000
0.00000000000000000000
4660917610608.36425781250000000000
0.00000000000000000000
0.00000000000000000000
-2854492177245.13037109375000000000
-28801430967941.08203125000000000000
-25886432017633.27734375000000000000
4119784735227.84130859375000000000
-28457080646.50638961791992187500
6176970525441.75292968750000000000
23373373726225.75000000000000000000
6024091749710.19824218750000000000
-5097172925512.82617187500000000000
10525318991745.20117187500000000000
-12943114100804.39843750000000000000
39593001444963.10937500000000000000
-11564807029941.28710937500000000000
-1950720469090.07666015625000000000
-1006588745623.49121093750000000000
-4778311816267.37500000000000000000
-12549185156487.90429687500000000000
-15844788279061.91601562500000000000
0.00000000000000000000
0.00000000000000000000
7300887568316.17480468750000000000
4777525305490.37304687500000000000
-10712074499950.29101562500000000000
2509745053860.65039062500000000000
254015327836.71405029296875000000
0.00000000000000000000
0.00000000000000000000
-1356742300638.85058593750000000000
13012292917964.98632812500000000000
16431964293244.27734375000000000000
1410918680751.18041992187500000000
15472072434549.06835937500000000000
599876330972.28601074218750000000
-8948083085388.57226562500000000000
6712649890822.56738281250000000000
4097206503975.79443359375000000000
8270111610602.09667968750000000000
-780308504663.13671875000000000000
-13403722358036.86523437500000000000
-20782498709834.19531250000000000000
6285105619954.56933593750000000000
943324394416.68066406250000000000
-355987409649.34362792968750000000
-48764983434.04835510253906250000
-839390657607.79431152343750000000
3957982830981.25146484375000000000
611168401309.49926757812500000000
-3802087320404.17626953125000000000
-1894026346231.72802734375000000000
-10219261274901.76953125000000000000
7001354117176.90625000000000000000
278476368495.49072265625000000000
2008559461698.38940429687500000000
6917074302677.57226562500000000000
-10375278707264.09179687500000000000
-4153802886768.93408203125000000000
-8353548092744.72265625000000000000
0.00000000000000000000
0.00000000000000000000
4568428203493.50878906250000000000
2751574656951.97851562500000000000
0.00000000000000000000
0.00000000000000000000
0.00000000000000000000
7177764039102.43261718750000000000
-6520248147060.07910156250000000000
8053661554992.25781250000000000000
0.00000000000000000000
1882699182489.29467773437500000000
761521692152.72888183593750000000
0.00000000000000000000
2802506835760.27294921875000000000
-1883250322016.73193359375000000000
-683085754895.67187500000000000000
-1339430776844.14306640625000000000
-1488175376857.80224609375000000000
0.00000000000000000000
9619728233442.31640625000000000000
-852286655060.66638183593750000000
0.00000000000000000000
0.00000000000000000000
-5380698086077.24414062500000000000
0.00000000000000000000
-1112174603876.06176757812500000000
0.00000000000000000000
0.00000000000000000000
0.00000000000000000000
-6530662183727.46972656250000000000
0.00000000000000000000
-240359968542.85977172851562500000
0.00000000000000000000
2197799610502.16259765625000000000
3996384588221.02539062500000000000
-1231410636433.36743164062500000000
3058414234742.11914062500000000000
0.00000000000000000000
0.00000000000000000000
-2966104413327.66748046875000000000
0.00000000000000000000
0.00000000000000000000
399224308931.87823486328125000000
2718054574455.52392578125000000000
2539687529609.11474609375000000000
0.00000000000000000000
0.00000000000000000000
0.00000000000000000000

1
2
3
4
5
2
6
3
5
5
3
2
1
7
2
8
9
7
4
2
9
9
2
7
10
11
12
6
5
11
4
12
5
5
12
11
4
9
13
8
14
9
15
13
14
14
13
9
10
12
16
4
13
12
15
16
13
13
16
12
17
18
19
6
11
18
10
19
11
11
19
18
8
20
14
21
22
20
15
14
22
22
14
20
15
23
16
24
25
23
10
16
25
25
16
23
17
19
26
10
27
19
28
26
27
27
26
19
24
29
25
28
27
29
10
25
27
27
25
29
15
22
30
21
31
22
32
30
31
31
30
22
15
30
23
32
33
30
24
23
33
33
23
30
17
26
34
28
35
26
36
34
35
35
34
26
32
31
37
21
38
31
39
37
38
38
37
31
28
29
40
24
41
29
42
40
41
41
40
29
32
43
33
44
45
43
24
33
45
45
33
43
46
47
48
36
35
47
28
48
35
35
48
47
42
41
49
24
45
41
44
49
45
45
49
41
50
51
52
32
37
51
39
52
37
37
52
51
28
40
53
42
54
40
55
53
54
54
53
40
50
56
51
44
43
56
32
51
43
43
51
56
46
48
57
28
53
48
55
57
53
53
57
48
58
59
60
36
47
59
46
60
47
47
60
59
61
62
63
42
49
62
44
63
49
49
63
62
50
52
64
39
65
52
66
64
65
65
64
52
55
54
67
42
68
54
69
67
68
68
67
54
50
70
56
71
72
70
44
56
72
72
56
70
61
73
62
69
68
73
42
62
68
68
62
73
46
57
74
55
75
57
76
74
75
75
74
57
46
77
60
78
79
77
58
60
79
79
60
77
61
63
80
44
81
63
82
80
81
81
80
63
44
72
81
71
83
72
82
81
83
83
81
72
76
84
74
78
77
84
46
74
77
77
74
84
50
64
85
66
86
64
87
85
86
86
85
64
87
88
85
71
70
88
50
85
70
70
85
88
89
90
91
55
67
90
69
91
67
67
91
90
89
92
90
76
75
92
55
90
75
75
90
92
61
93
73
94
95
93
69
73
95
95
73
93
78
96
79
97
98
96
58
79
98
98
79
96
61
80
93
82
99
80
94
93
99
99
93
80
87
86
100
66
101
86
102
100
101
101
100
86
103
104
105
82
83
104
71
105
83
83
105
104
76
106
84
107
108
106
78
84
108
108
84
106
87
109
88
110
111
109
71
88
111
111
88
109
69
112
91
113
114
112
89
91
114
114
91
112
69
95
112
94
115
95
113
112
115
115
112
95
116
117
118
76
92
117
89
118
92
92
118
117
78
108
96
107
119
108
97
96
119
119
96
108
71
111
105
110
120
111
103
105
120
120
105
111
82
121
99
122
123
121
94
99
123
123
99
121
87
100
109
102
124
100
110
109
124
124
109
100
116
125
117
107
106
125
76
117
106
106
117
125
82
104
121
103
126
104
122
121
126
126
121
104
113
127
114
128
129
127
89
114
129
129
114
127
128
130
129
116
118
130
89
129
118
118
129
130
94
131
115
132
133
131
113
115
133
133
115
131
94
123
134
122
135
123
136
134
135
135
134
123
94
134
131
136
137
134
132
131
137
137
131
134
138
139
140
128
127
139
113
140
127
127
140
139
113
133
140
132
141
133
138
140
141
141
140
133
132
137
142
136
143
137
144
142
143
143
142
137
132
142
141
144
145
142
138
141
145
145
141
142
