VARIABLES = "X", "Y", "P", "U", "V"
ZONE NODES=145, ELEMENTS=248, DATAPACKING=BLOCK,
ZONETYPE=FETRIANGLE
0.00000000000000000000
0.26667722394373116757
0.00000000000000000000
0.53335444788746233513
0.26667722394373116757
0.00000000000000000000
0.39657620105314245196
0.79315240210628490392
0.66325342499687356401
0.70667580712183153402
0.35333790356091576701
0.62001512750464693458
0.88603297557851401489
1.01593195268792535479
1.23871150326956569465
0.97269365519569861434
0.00000000000000000000
0.00000000000000000000
0.35333790356091576701
1.25595368290497311214
1.71875496370366143140
1.47873323348661367405
1.45771314908390636766
1.67671479489824704068
1.19169530101003928735
0.48074579251376259315
0.83408369607467836016
0.96149158502752518629
1.31910318996288600246
1.76494696323358857271
2.00496869345063633006
2.29118242319761167280
1.98394860904792924572
0.00000000000000000000
0.48074579251376259315
0.00000000000000000000
2.58435197615498690737
2.29813824640801156463
2.87752152911236169786
1.58595842978851764293
1.94357003472387868115
2.21042527454951009958
2.69298603903123545678
3.09478965486485924075
2.38575222488155302969
0.72903061204026609055
0.36451530602013304527
0.84526109853389563842
2.65260746470718444812
3.63220646404290192777
2.96169444362025657824
3.25486399657763181281
1.31564185259932409089
1.94010869736031654753
1.66979212017112299549
3.36349805945388080630
1.19941136610569465404
0.00000000000000000000
0.00000000000000000000
0.36451530602013304527
3.39881864170484471188
2.80462195812717762777
3.24680414828485197631
3.99847418175501001514
3.62113171428973990018
4.36474189946711810251
2.26529127616274372770
2.53560785335193727974
2.86079043215436445990
4.17798756444317476166
4.72376866484344759556
3.90927915985415364020
3.12980453692960480794
0.99444669393293982917
1.46482744799836828165
1.25986277582561356780
0.63591181053289358438
0.54279300902552118924
0.27139650451276059462
4.01264738610508331362
3.86063289268509013397
4.62647613050532147128
4.67512239767438408933
0.90132789242556743403
4.31395015297546535749
4.68021787068757433303
4.99569384190802967538
4.85973125337573819138
2.27896946351218199212
1.97438079184165249380
2.56987994783327344805
1.76941611966889777996
3.94780714461201220900
4.49679564751917926202
3.67879303983677186096
0.27139650451276059462
0.00000000000000000000
0.00000000000000000000
4.56163588901225036665
5.63784692095401496204
5.32237094973355873151
6.28000000000000024869
6.28000000000000024869
5.45323806525266085998
5.50188433242172436621
1.03988797146039257946
0.81991316709517159111
0.68135308806034644569
5.63784692095401496204
6.28000000000000024869
5.50188433242172436621
3.22863154909382243929
3.59647266603328041867
2.93772106477273098335
4.04663415677623028444
1.76716520061452397883
1.51351398822006877332
2.02306733206335298547
0.40995658354758579556
6.28000000000000024869
5.45323806525266085998
6.28000000000000024869
5.38839782375958975535
6.28000000000000024869
1.29353918385484778497
6.28000000000000024869
3.27191791448657376407
2.94736316293986666537
2.61316631322602432874
2.35726418177719532210
4.74724679564266072163
4.99769794376614218123
4.29708530489971174404
5.38839782375958975535
6.28000000000000024869
6.28000000000000024869
5.63884897188307121496
4.46439474756127729904
3.70587895525057220425
4.03043370679727885886
4.73104634566371018423
5.63884897188307121496
6.28000000000000024869
6.28000000000000024869
5.37219737378063832978

0.00000000000000000000
0.17485863154465428049
0.27861781383709299798
0.34971726308930856097
0.45347644538174725071
0.55723562767418599595
0.00000000000000000000
0.00000000000000000000
0.17485863154465428049
0.85697418438344041824
0.70710490602881326261
0.60334572373637451737
0.39263821928616693402
0.21777958774151265353
0.43555917548302530706
0.64626667993323283490
1.30616695598760856889
0.93170129183089733793
1.08157057018552449357
0.00000000000000000000
0.00000000000000000000
0.21777958774151265353
0.75991501254909821217
1.08427084961517117279
0.97062251699930579552
1.58174530070719132624
1.35714891490510725092
1.85732364542677408359
1.47079724752097273921
0.48034568564387192247
0.26256609790235929669
0.52513219580471859338
0.80470152270994488308
1.86847740479666191149
2.14405574951624444680
2.43078785360571503205
0.26256609790235929669
0.00000000000000000000
0.00000000000000000000
1.92922055416326676536
1.54269415625746519893
2.00111746289975922508
0.90300364977727898275
1.28087510374983937211
1.18257297668250527245
3.35297499780085406229
2.89188142570328476921
2.60514932161381418396
1.64099628332479929860
0.54740331390212870755
0.53626775485342359495
0.27370165695106435377
2.47670328349849722116
2.54860019223499012497
3.09608292157022058078
0.91413920882598409534
3.22452895968553754358
4.07640874181217505168
3.25359829770894481982
3.71469186980651455698
2.22457491386004591050
2.11284618837990256779
1.75272500880494264131
0.27370165695106435377
0.00000000000000000000
0.00000000000000000000
3.11352150476319788908
2.56603877542796743327
3.13096008795617564147
0.82352660338594008138
1.09964989286975156624
1.19026249830979535815
2.67776750090811077598
3.99405462632679730817
3.86560858821148034536
4.63513425485274055404
4.11121723597189525634
4.86945947414293645039
4.47293410797755619512
2.08423122263497573314
1.61238131757987268600
1.94388753140990577783
1.52176871213982867204
4.75229686449783805813
0.51536077620268094801
0.24165911925161656648
0.48331823850323313296
0.79148406568649232184
4.53251923854618699039
3.81430108005820400763
3.83173966325118131593
4.58382674669946332813
2.70064961724904595286
3.17672432063804643931
3.15384220429711081835
5.57472973707146834954
6.28000000000000024869
5.17820437090608720609
2.56030592602397621960
0.24165911925161656648
0.00000000000000000000
0.00000000000000000000
1.62496516228135323701
1.78442634684562939640
1.36230752757555251264
5.45756712742637084546
6.28000000000000024869
5.57472973707146834954
0.63589379434679005332
0.78846935019034691816
0.94405962153004918669
3.83654462537911422615
4.54212916280205281083
4.53732420067411990061
3.85942674172004984712
6.28000000000000024869
5.45756712742637084546
5.40625961927309361954
6.28000000000000024869
1.20671725623585013309
2.29100510055173600676
2.63812266969356601365
2.90742349516580622648
0.39423467509517345908
6.28000000000000024869
2.13154391598745984737
5.41106458140102652976
6.28000000000000024869
5.40625961927309361954
6.28000000000000024869
3.96204541700485268763
4.74736651337165938003
4.64474783808685565134
3.62855069838566812734
3.35924987291342791451
4.08037707613328937128
4.41387179475247393157
6.28000000000000024869
6.28000000000000024869
5.41106458140102652976
5.51368325668583025845
5.51368325668583025845
5.18018853806664480999
6.28000000000000024869
6.28000000000000024869

-2380138832228117881483689984.00000000000000000000
-2380138832643050754940076032.00000000000000000000
-2380138833446492488658321408.00000000000000000000
-2380138833101031707647148032.00000000000000000000
-2380138833907706280428961792.00000000000000000000
-2380138834675879529418850304.00000000000000000000
-2380138829089309327200616448.00000000000000000000
-2380138826189489245941399552.00000000000000000000
-2380138829523912188800008192.00000000000000000000
-2380138837588153229130072064.00000000000000000000
-2380138836155412062568185856.00000000000000000000
-2380138835259265005954007040.00000000000000000000
-2380138831542274688792133632.00000000000000000000
-2380138828251018847317917696.00000000000000000000
-2380138830205241336503730176.00000000000000000000
-2380138833713645776661381120.00000000000000000000
-2380138837181192639608782848.00000000000000000000
-2380138835765708857800654848.00000000000000000000
-2380138837259238173971578880.00000000000000000000
-2380138829029566263393779712.00000000000000000000
-2380138831665478265219317760.00000000000000000000
-2380138831039504855049699328.00000000000000000000
-2380138833747929098971250688.00000000000000000000
-2380138837505251701663203328.00000000000000000000
-2380138837445865704257486848.00000000000000000000
-2380138838873413602523480064.00000000000000000000
-2380138838776192585372270592.00000000000000000000
-2380138839761888541876944896.00000000000000000000
-2380138838649207513579257856.00000000000000000000
-2380138832278102504716107776.00000000000000000000
-2380138832961949259169529856.00000000000000000000
-2380138834410810915462053888.00000000000000000000
-2380138835710085114307280896.00000000000000000000
-2380138829953182419004686336.00000000000000000000
-2380138831080759081079668736.00000000000000000000
-2380138821939150577157013504.00000000000000000000
-2380138832642401493323874304.00000000000000000000
-2380138831318788779964104704.00000000000000000000
-2380138831100415875083141120.00000000000000000000
-2380138832301190324754055168.00000000000000000000
-2380138831512320418638725120.00000000000000000000
-2380138825235540038421315584.00000000000000000000
-2380138832519896931414048768.00000000000000000000
-2380138830336886688331071488.00000000000000000000
-2380138834079729272641028096.00000000000000000000
-2380138848746236921335775232.00000000000000000000
-2380138835254682241489436672.00000000000000000000
-2380138844144335731761872896.00000000000000000000
-2380138828008378346422403072.00000000000000000000
-2380138835028322209266401280.00000000000000000000
-2380138834738721566748573696.00000000000000000000
-2380138833067091432965144576.00000000000000000000
-2380138837574644079515402240.00000000000000000000
-2380138830185569699093282816.00000000000000000000
-2380138836081287111792132096.00000000000000000000
-2380138832854291677647470592.00000000000000000000
-2380138842313391585793933312.00000000000000000000
-2380138843263648908145852416.00000000000000000000
-2380138832461757230438416384.00000000000000000000
-2380138846103937306708672512.00000000000000000000
-2380138834343108486981746688.00000000000000000000
-2380138829632237723635941376.00000000000000000000
-2380138832340100117115699200.00000000000000000000
-2380138835329594717468884992.00000000000000000000
-2380138833415432384685277184.00000000000000000000
-2380138835695237034407886848.00000000000000000000
-2380138835368558935656103936.00000000000000000000
-2380138830330910842634108928.00000000000000000000
-2380138835279445992126021632.00000000000000000000
-2380138834093019344563863552.00000000000000000000
-2380138832939639893364047872.00000000000000000000
-2380138831616636584323973120.00000000000000000000
-2380138834710551254211231744.00000000000000000000
-2380138837955360151115399168.00000000000000000000
-2380138831818190259834847232.00000000000000000000
-2380138827266825373452599296.00000000000000000000
-2380138845353031338077192192.00000000000000000000
-2380138842016306567625834496.00000000000000000000
-2380138842643365745527881728.00000000000000000000
-2380138837189238865700847616.00000000000000000000
-2380138834935237279980978176.00000000000000000000
-2380138840115520068672028672.00000000000000000000
-2380138836226595544862031872.00000000000000000000
-2380138834485190128302030848.00000000000000000000
-2380138835230880563527155712.00000000000000000000
-2380138835569903978835607552.00000000000000000000
-2380138835445610786385297408.00000000000000000000
-2380138834307779254235955200.00000000000000000000
-2380138845395017563973353472.00000000000000000000
-2380138840873819703244488704.00000000000000000000
-2380138840186532027151941632.00000000000000000000
-2380138836574250676204339200.00000000000000000000
-2380138833625597985020706816.00000000000000000000
-2380138832319077729670529024.00000000000000000000
-2380138833875163759903768576.00000000000000000000
-2380138841259075108599758848.00000000000000000000
-2380138840501843374695776256.00000000000000000000
-2380138841882746141420814336.00000000000000000000
-2380138836413329178020020224.00000000000000000000
-2380138837133699234846998528.00000000000000000000
-2380138837258511946541432832.00000000000000000000
-2380138838821786583797071872.00000000000000000000
-2380138843038198721794801664.00000000000000000000
-2380138841576859532672368640.00000000000000000000
-2380138837709615179138859008.00000000000000000000
-2380138831811404348946120704.00000000000000000000
-2380138836355982774683828224.00000000000000000000
-2380138839154777253681823744.00000000000000000000
-2380138836030669169862115328.00000000000000000000
-2380138836615727553338933248.00000000000000000000
-2380138834673683804698181632.00000000000000000000
-2380138837673637509410586624.00000000000000000000
-2380138840094258537447817216.00000000000000000000
-2380138842767203190408478720.00000000000000000000
-2380138836268409972066353152.00000000000000000000
-2380138838926385323970658304.00000000000000000000
-2380138833127720428266061824.00000000000000000000
-2380138842160701581410959360.00000000000000000000
-2380138838397545794655748096.00000000000000000000
-2380138839443659365350899712.00000000000000000000
-2380138836936333599126323200.00000000000000000000
-2380138833587963626147282944.00000000000000000000
-2380138833203496845507035136.00000000000000000000
-2380138837718757068568002560.00000000000000000000
-2380138837672298579125862400.00000000000000000000
-2380138838397673063126663168.00000000000000000000
-2380138838623227977960259584.00000000000000000000
-2380138836962448099797630976.00000000000000000000
-2380138841119434657971044352.00000000000000000000
-2380138837885118675408650240.00000000000000000000
-2380138835655373415709147136.00000000000000000000
-2380138839089650431189581824.00000000000000000000
-2380138839598672088047550464.00000000000000000000
-2380138829202870736408018944.00000000000000000000
-2380138829999649979417755648.00000000000000000000
-2380138826134983430895566848.00000000000000000000
-2380138832574934910087725056.00000000000000000000
-2380138845214772423808778240.00000000000000000000
-2380138841154592092024995840.00000000000000000000
-2380138842677430265023823872.00000000000000000000
-2380138842152211427499180032.00000000000000000000
-2380138837787085394042421248.00000000000000000000
-2380138831309752168773320704.00000000000000000000
-2380138836484520631773167616.00000000000000000000
-2380138840849646665229926400.00000000000000000000

0.00000000000000000000
-1630177648965.40551757812500000000
0.00000000000000000000
3994612175519.48730468750000000000
-3563182932948.48144531250000000000
0.00000000000000000000
0.00000000000000000000
0.00000000000000000000
-9373808947025.08007812500000000000
-7728311019732.48046875000000000000
8235125605362.67089843750000000000
1661303307465.10522460937500000000
-24222602804915.89062500000000000000
-3308061239836.48242187500000000000
-19372991968411.85937500000000000000
-1319057167472.80834960937500000000
0.00000000000000000000
0.00000000000000000000
4274446503787.95361328125000000000
0.00000000000000000000
0.00000000000000000000
-16427054678750.68554687500000000000
-17666988349209.84765625000000000000
13152330790322.58984375000000000000
2343851043731.59326171875000000000
-15067083000947.02148437500000000000
12753326923826.64843750000000000000
3872445983096.29882812500000000000
20506500232800.35546875000000000000
2258358826484.69384765625000000000
-7405025796813.94433593750000000000
32187539959010.46875000000000000000
10703913459032.70312500000000000000
0.00000000000000000000
14507047689655.91015625000000000000
0.00000000000000000000
27532584416676.36718750000000000000
0.00000000000000000000
0.00000000000000000000
1008869061604.89843750000000000000
-11611501817226.01562500000000000000
11309354449529.48632812500000000000
4065328459643.50634765625000000000
-31187338435419.25000000000000000000
-9163652163114.46875000000000000000
9013985725937.71679687500000000000
-27496570502161.43359375000000000000
-10690906287436.40820312500000000000
7442371498455.12402343750000000000
-5977622289676.87500000000000000000
12537787422412.57812500000000000000
-546674110071.47723388671875000000
-532458151716.49871826171875000000
-12684082070628.65039062500000000000
-2769898540475.90673828125000000000
-16729211750192.25585937500000000000
3237049191759.09472656250000000000
0.00000000000000000000
0.00000000000000000000
32390964861305.99218750000000000000
322391746011.43914794921875000000
-12436481924589.63476562500000000000
-23571700521975.53906250000000000000
-7417100110040.89062500000000000000
0.00000000000000000000
0.00000000000000000000
-453370535644.35626220703125000000
9012954916481.73632812500000000000
-3646886430384.92871093750000000000
16002045034968.35546875000000000000
8179373854469.54003906250000000000
2322633324900.25927734375000000000
-2172265252326.28808593750000000000
-1311074558200.25390625000000000000
23195051326841.05859375000000000000
-5014119944454.74804687500000000000
28589713545004.61328125000000000000
-24632033211182.08593750000000000000
-17617532155982.09375000000000000000
-1214708220504.39941406250000000000
6196238797992.12695312500000000000
21410621449783.84375000000000000000
9860193525022.83203125000000000000
-14995336941300.00781250000000000000
-4841649906685.31250000000000000000
8523648027036.63281250000000000000
9858102795690.22656250000000000000
6236158203823.33691406250000000000
-8221019449857.53417968750000000000
3689616567986.12402343750000000000
1113650231386.78222656250000000000
-6723794683162.91699218750000000000
1373293658636.89819335937500000000
-5382532448154.91992187500000000000
7925524124314.13085937500000000000
5186120808207.17480468750000000000
0.00000000000000000000
0.00000000000000000000
804861275210.58032226562500000000
-1265567451870.71044921875000000000
0.00000000000000000000
0.00000000000000000000
0.00000000000000000000
-2373183122149.22216796875000000000
-14198710193386.71875000000000000000
16880455721739.99804687500000000000
0.53018081617889334378
-1445415556464.62841796875000000000
-4346529104723.09765625000000000000
0.00000000000000000000
-314279934314.99719238281250000000
-5692422397381.68164062500000000000
4389624375174.90771484375000000000
4182759731083.62255859375000000000
-10517427641948.03906250000000000000
-9.05958884144516396475
-15364905276131.99218750000000000000
3362027130436.58789062500000000000
0.97063630101118081317
0.00000000000000000000
-7371977051959.82519531250000000000
0.00000000000000000000
-4537410998369.03906250000000000000
0.00000000000000000000
-1.89510514851475431186
0.00000000000000000000
-8860507114693.91210937500000000000
-76.14061085604254230930
7842771778451.97558593750000000000
-30.67036501258056802044
11430525897102.02929687500000000000
1127636106756.93286132812500000000
-1760442866984.70922851562500000000
11258367887882.85937500000000000000
0.00000000000000000000
0.00000000000000000000
-11305598701387.73046875000000000000
-400.78092970663419691846
-190.57479400744594499884
5123916322587.21582031250000000000
-1920165003990.65014648437500000000
2466982324281.20019531250000000000
0.00000000000000000000
-1554.38739456000007521652
-835.87719166316423979879

0.00000000000000000000
34978853587553.23046875000000000000
0.00000000000000000000
-76191453610773.15625000000000000000
-3605600612606.27050781250000000000
0.00000000000000000000
0.00000000000000000000
0.00000000000000000000
-6296177178633.31542968750000000000
18172872177330.70703125000000000000
-7296873598899.41699218750000000000
28423285778817.14062500000000000000
6430675406486.43164062500000000000
16881087338362.39453125000000000000
12931297799769.35156250000000000000
40308322218863.40625000000000000000
0.00000000000000000000
0.00000000000000000000
-2450273640396.39697265625000000000
0.00000000000000000000
0.00000000000000000000
-9869220512076.06250000000000000000
-60017529164722.03125000000000000000
13738498575662.74804687500000000000
13196145629615.80078125000000000000
-11366363042618.90625000000000000000
18936592788360.53125000000000000000
8922626030094.44921875000000000000
-8047507468357.88281250000000000000
-12061982524598.64062500000000000000
-11880815840139.68554687500000000000
5948476133127.35937500000000000000
-24621504120865.33593750000000000000
0.00000000000000000000
5274161884709.57714843750000000000
0.00000000000000000000
2185494280346.90380859375000000000
0.00000000000000000000
0.00000000000000000000
-6508677686391.42773437500000000000
-24783004754195.02734375000000000000
-28526944624927.62890625000000000000
6517674703633.77539062500000000000
-4250417789120.45703125000000000000
7838276507972.82812500000000000000
21428171822179.25781250000000000000
4714756729432.44824218750000000000
-4430062775598.94238281250000000000
8576236893085.02929687500000000000
-15812219943722.03320312500000000000
39141200071469.99218750000000000000
-9844186577845.06054687500000000000
410914051361.54858398437500000000
-576859262706.66052246093750000000
-4460110154715.69140625000000000000
-10487325002424.74414062500000000000
-16319063412926.39843750000000000000
0.00000000000000000000
0.00000000000000000000
9897215090627.78710937500000000000
4640455603774.80371093750000000000
-7839176899778.50292968750000000000
4643044862338.00292968750000000000
-149339095178.90130615234375000000
0.00000000000000000000
0.00000000000000000000
-30915920371.70301055908203125000
12180898258024.69140625000000000000
14316955620706.64257812500000000000
1889898295348.91845703125000000000
11652233858815.32421875000000000000
92371432382.74789428710937500000
-10355353041303.54882812500000000000
3212621389206.55224609375000000000
4298642808835.36181640625000000000
6750048562904.43945312500000000000
3727742456269.47753906250000000000
-15168094254660.45507812500000000000
-21120310441261.16796875000000000000
3671898945963.28955078125000000000
5537970693546.62402343750000000000
-1258054150461.53027343750000000000
1368236013927.50659179687500000000
-763220969131.99230957031250000000
8984740578163.21289062500000000000
-2627710708873.12646484375000000000
-726395784439.12988281250000000000
-3326247230275.89892578125000000000
-7376859038186.30566406250000000000
5111686523328.48535156250000000000
1339852115286.68530273437500000000
-230018739474.39849853515625000000
10786369560322.38085937500000000000
-7830900029816.86035156250000000000
-4643646069429.15136718750000000000
-9095282504791.46093750000000000000
0.00000000000000000000
0.00000000000000000000
1990015594313.98022460937500000000
3164366066165.39306640625000000000
0.00000000000000000000
0.00000000000000000000
0.00000000000000000000
3143361374701.02294921875000000000
-4654690996561.49218750000000000000
8461807161053.52734375000000000000
0.00000000000000000000
1454492962342.15869140625000000000
299023222228.33233642578125000000
0.00000000000000000000
2232224833858.70019531250000000000
-817358854395.90490722656250000000
-433643665803.68139648437500000000
-3430378974781.66210937500000000000
-2451961633583.22656250000000000000
0.00000000000000000000
10359835212563.83789062500000000000
-761836715574.30310058593750000000
0.00000000000000000000
0.00000000000000000000
-2848804796055.07861328125000000000
0.00000000000000000000
-323062717801.06555175781250000000
0.00000000000000000000
0.00000000000000000000
0.00000000000000000000
-4878693706010.21777343750000000000
0.00000000000000000000
1598243439623.94458007812500000000
0.00000000000000000000
1155237563775.42529296875000000000
4935572296740.28515625000000000000
1034258353642.87951660156250000000
563722570432.05029296875000000000
0.00000000000000000000
0.00000000000000000000
-1654038031342.77612304687500000000
0.00000000000000000000
0.00000000000000000000
-1723771154560.81665039062500000000
2118382632755.33276367187500000000
1279137330826.81274414062500000000
0.00000000000000000000
0.00000000000000000000
0.00000000000000000000

1
2
3
4
5
2
6
3
5
5
3
2
1
7
2
8
9
7
4
2
9
9
2
7
10
11
12
6
5
11
4
12
5
5
12
11
4
9
13
8
14
9
15
13
14
14
13
9
10
12
16
4
13
12
15
16
13
13
16
12
17
18
19
6
11
18
10
19
11
11
19
18
8
20
14
21
22
20
15
14
22
22
14
20
15
23
16
24
25
23
10
16
25
25
16
23
17
19
26
10
27
19
28
26
27
27
26
19
24
29
25
28
27
29
10
25
27
27
25
29
15
22
30
21
31
22
32
30
31
31
30
22
15
30
23
32
33
30
24
23
33
33
23
30
17
26
34
28
35
26
36
34
35
35
34
26
32
31
37
21
38
31
39
37
38
38
37
31
28
29
40
24
41
29
42
40
41
41
40
29
32
43
33
44
45
43
24
33
45
45
33
43
46
47
48
36
35
47
28
48
35
35
48
47
42
41
49
24
45
41
44
49
45
45
49
41
50
51
52
32
37
51
39
52
37
37
52
51
28
40
53
42
54
40
55
53
54
54
53
40
50
56
51
44
43
56
32
51
43
43
51
56
46
48
57
28
53
48
55
57
53
53
57
48
58
59
60
36
47
59
46
60
47
47
60
59
61
62
63
42
49
62
44
63
49
49
63
62
50
52
64
39
65
52
66
64
65
65
64
52
55
54
67
42
68
54
69
67
68
68
67
54
50
70
56
71
72
70
44
56
72
72
56
70
61
73
62
69
68
73
42
62
68
68
62
73
46
57
74
55
75
57
76
74
75
75
74
57
46
77
60
78
79
77
58
60
79
79
60
77
61
63
80
44
81
63
82
80
81
81
80
63
44
72
81
71
83
72
82
81
83
83
81
72
76
84
74
78
77
84
46
74
77
77
74
84
50
64
85
66
86
64
87
85
86
86
85
64
87
88
85
71
70
88
50
85
70
70
85
88
89
90
91
55
67
90
69
91
67
67
91
90
89
92
90
76
75
92
55
90
75
75
90
92
61
93
73
94
95
93
69
73
95
95
73
93
78
96
79
97
98
96
58
79
98
98
79
96
61
80
93
82
99
80
94
93
99
99
93
80
87
86
100
66
101
86
102
100
101
101
100
86
103
104
105
82
83
104
71
105
83
83
105
104
76
106
84
107
108
106
78
84
108
108
84
106
87
109
88
110
111
109
71
88
111
111
88
109
69
112
91
113
114
112
89
91
114
114
91
112
69
95
112
94
115
95
113
112
115
115
112
95
116
117
118
76
92
117
89
118
92
92
118
117
78
108
96
107
119
108
97
96
119
119
96
108
71
111
105
110
120
111
103
105
120
120
105
111
82
121
99
122
123
121
94
99
123
123
99
121
87
100
109
102
124
100
110
109
124
124
109
100
116
125
117
107
106
125
76
117
106
106
117
125
82
104
121
103
126
104
122
121
126
126
121
104
113
127
114
128
129
127
89
114
129
129
114
127
128
130
129
116
118
130
89
129
118
118
129
130
94
131
115
132
133
131
113
115
133
133
115
131
94
123
134
122
135
123
136
134
135
135
134
123
94
134
131
136
137
134
132
131
137
137
131
134
138
139
140
128
127
139
113
140
127
127
140
139
113
133
140
132
141
133
138
140
141
141
140
133
132
137
142
136
143
137
144
142
143
143
142
137
132
142
141
144
145
142
138
141
145
145
141
142
