VARIABLES = "X", "Y", "P"
ZONE NODES=42, ELEMENTS=62, DATAPACKING=BLOCK,
ZONETYPE=FETRIANGLE
0.00000000000000000000
0.52538366401326785926
0.00000000000000000000
0.78124820382668536123
0.69727957803124329672
1.22222967198631526919
0.00000000000000000000
1.69776730720531054963
1.65748535791937001704
0.94787391527458564333
2.26832591243839498674
0.00000000000000000000
2.85390319415110838008
2.18522688919261609541
3.07087875657468689639
0.71177281537838477110
3.61083534262329308717
1.63957021897962840207
0.00000000000000000000
3.37161682134638107655
4.34713900496159855180
2.82374617755604395697
4.70893944587506663169
1.22559315188455086876
0.52669258065524238166
4.60809513127795611354
4.98361292769193742203
2.23214166761371668457
4.46875786117110873619
0.00000000000000000000
6.28000000000000024869
6.28000000000000024869
0.79443202681409375021
6.28000000000000024869
3.55035545520255624297
1.72148110949411781156
6.28000000000000024869
2.89414032735382820150
4.96896864838795782049
6.28000000000000024869
4.42506476505702295299
6.28000000000000024869

0.00000000000000000000
0.36127822192608799456
0.57720837168330751954
0.00000000000000000000
0.89035124309508906215
0.45069625521260486822
1.36104542710047038412
0.00000000000000000000
1.12451737992987599313
1.93386163758899720655
0.54299658142440376807
2.53164983810439681022
0.00000000000000000000
2.07104716200689020766
1.32235340002241485990
3.46387084779720177963
0.56498194871665319283
3.19786923688133128962
4.18506485245430503994
2.29064345087420750957
0.00000000000000000000
3.21923873397974880106
1.13220282734334332098
4.72123327055054797796
4.94825297375852279913
1.99745125743288176601
0.49840685720090915911
4.61440767055049771983
3.24959940237769284721
6.28000000000000024869
0.00000000000000000000
1.66898886376064781167
6.28000000000000024869
0.81215888869074126521
4.61207371262087839625
6.28000000000000024869
2.70057347743226339176
6.28000000000000024869
4.80340674232438846758
4.14547396794325706537
6.28000000000000024869
6.28000000000000024869

-2380138831879204359083393024.00000000000000000000
-2380138831079517457574002688.00000000000000000000
-2380138829953778354306940928.00000000000000000000
-2380138832341869781080604672.00000000000000000000
-2380138831802044481336770560.00000000000000000000
-2380138832130535674762756096.00000000000000000000
-2380138833461840846348353536.00000000000000000000
-2380138832389255708580773888.00000000000000000000
-2380138830624970279680475136.00000000000000000000
-2380138830905363336949399552.00000000000000000000
-2380138827709039879173177344.00000000000000000000
-2380138830949291300380213248.00000000000000000000
-2380138832095612436685520896.00000000000000000000
-2380138830572929569704116224.00000000000000000000
-2380138830083966853227479040.00000000000000000000
-2380138828852646046391599104.00000000000000000000
-2380138832262884714031874048.00000000000000000000
-2380138832484008597005533184.00000000000000000000
-2380138831505947374366228480.00000000000000000000
-2380138830433347393191673856.00000000000000000000
-2380138830737416509219405824.00000000000000000000
-2380138831344029718647144448.00000000000000000000
-2380138831520535694643560448.00000000000000000000
-2380138829751173820557819904.00000000000000000000
-2380138830435953235749502976.00000000000000000000
-2380138833137199867764932608.00000000000000000000
-2380138828600026103084482560.00000000000000000000
-2380138830055637661259923456.00000000000000000000
-2380138829422678503963230208.00000000000000000000
-2380138830763890275315089408.00000000000000000000
-2380138830257917014445129728.00000000000000000000
-2380138830750369580828327936.00000000000000000000
-2380138830832349992429027328.00000000000000000000
-2380138830912267170460205056.00000000000000000000
-2380138831393327696868016128.00000000000000000000
-2380138831579070670049378304.00000000000000000000
-2380138832344944290469773312.00000000000000000000
-2380138830051021911446519808.00000000000000000000
-2380138829417199912399929344.00000000000000000000
-2380138832229544497820729344.00000000000000000000
-2380138831383140996514578432.00000000000000000000
-2380138830913591532215861248.00000000000000000000

1
2
3
1
4
2
5
3
2
2
4
6
5
2
6
7
3
5
4
8
6
6
9
5
7
5
10
9
10
5
6
8
11
6
11
9
7
10
12
11
8
13
10
9
14
11
15
9
16
12
10
14
9
15
17
11
13
10
14
18
17
15
11
16
10
18
19
12
16
20
14
15
17
13
21
18
14
22
17
23
15
20
22
14
16
18
24
16
25
19
20
15
26
15
23
26
24
25
16
17
21
27
27
23
17
28
18
22
28
24
18
20
29
22
25
30
19
20
26
29
27
21
31
32
26
23
24
33
25
27
34
23
22
35
28
22
29
35
36
24
28
25
33
30
23
34
32
26
37
29
27
31
34
36
33
24
26
32
37
35
38
28
38
36
28
29
39
35
29
37
40
29
40
39
41
38
35
35
39
41
39
40
42
39
42
41
