VARIABLES = "X", "Y", "P"
ZONE NODES=42, ELEMENTS=62, DATAPACKING=BLOCK,
ZONETYPE=FETRIANGLE
0.00000000000000000000
0.84518375974767712133
0.00000000000000000000
1.25600000000000022737
1.09150136204052228273
1.87861193818464067284
0.00000000000000000000
2.51200000000000001066
2.41054216040779767383
1.41471307212712327228
3.15647850590016343375
0.00000000000000000000
3.76799999999999934985
2.98514064515359400787
3.93631910128335649190
1.07358216526009697667
4.43289998330453460795
2.34175867318306263343
0.00000000000000000000
4.15332573121053805210
5.02399999999999824496
3.65244922319921405673
5.25700876306083131340
1.84902388480275647886
0.83571954592007990925
5.15701991637110790379
5.45486558711102542674
3.07468523557067152652
5.03387104223911130418
0.00000000000000000000
6.28000000000000024869
6.28000000000000024869
1.25600000000000133760
6.28000000000000024869
4.32380078594969941008
2.51200000000000178701
6.28000000000000024869
3.76800000000000157030
5.38848995469809199932
6.28000000000000024869
5.02400000000000090949
6.28000000000000024869

0.00000000000000000000
0.79842668086650359083
1.25600000000000067146
0.00000000000000000000
1.79153381012077672629
0.94738655174987140839
2.51200000000000134293
0.00000000000000000000
2.06757176263772590730
3.17513579691462677346
1.03334749893239696839
3.76800000000000023803
0.00000000000000000000
3.25271863591510346225
2.21928171168937771185
4.52408822036381152998
0.97412122855100435892
4.32412787716068969246
5.02400000000000090949
3.42379278142697573983
0.00000000000000000000
4.32605751376921254803
1.79418183413195087006
5.36818765288905730415
5.49443417728160810043
3.00617348232810144282
0.80435125689806374893
5.31581357033536061607
4.33012133652614128465
6.28000000000000024869
0.00000000000000000000
2.51200000000000134293
6.28000000000000024869
1.25600000000000067146
5.32827269543217507675
6.28000000000000024869
3.76800000000000201439
6.28000000000000024869
5.44759298356755916615
5.02400000000000090949
6.28000000000000024869
6.28000000000000024869

262.76863699352338699100
262.76863595582057087086
262.76866431672380031159
262.76860927332091932840
262.76864194066871505129
262.76862940181990779820
262.76865663194536182345
262.76861639862454467220
262.76863641036590024669
262.76863632052589991872
262.76863696442421769461
262.76861631563338050910
262.76865709216104960433
262.76863660554079160647
262.76863681933804173241
262.76863101155828417177
262.76864357413313655343
262.76863692375371783783
262.76860868870903686911
262.76863679191490064113
262.76866416747731136638
262.76863558234930451363
262.76863070393460475316
262.76864413783647478340
262.76863712383948268325
262.76863553232254844261
262.76863712973295150732
262.76863720318584682900
262.76864044281296628469
262.76863591322108959503
262.76863675948419540873
262.76861596679503918494
262.76866372139801342200
262.76860932670797410537
262.76862944614020989320
262.76865688000208365338
262.76865598913269650438
262.76861660131413600539
262.76863576462898208774
262.76866350865122967662
262.76860908456671950262
262.76863690346658586350

1
2
3
1
4
2
5
3
2
2
4
6
5
2
6
7
3
5
4
8
6
6
9
5
7
5
10
9
10
5
6
8
11
6
11
9
7
10
12
11
8
13
10
9
14
11
15
9
16
12
10
14
9
15
17
11
13
10
14
18
17
15
11
16
10
18
19
12
16
20
14
15
17
13
21
18
14
22
17
23
15
20
22
14
16
18
24
16
25
19
20
15
26
15
23
26
24
25
16
17
21
27
27
23
17
28
18
22
28
24
18
20
29
22
25
30
19
20
26
29
27
21
31
32
26
23
24
33
25
27
34
23
22
35
28
22
29
35
36
24
28
25
33
30
23
34
32
26
37
29
27
31
34
36
33
24
26
32
37
35
38
28
38
36
28
29
39
35
29
37
40
29
40
39
41
38
35
35
39
41
39
40
42
39
42
41
