VARIABLES = "X", "Y", "P", "U", "V"
ZONE NODES=145, ELEMENTS=248, DATAPACKING=BLOCK,
ZONETYPE=FETRIANGLE
0.00000000000000000000
0.42259187987383856067
0.00000000000000000000
0.84518375974767712133
0.42259187987383856067
0.00000000000000000000
0.62800000000000011369
1.25600000000000022737
1.05059187987383872986
1.09150136204052228273
0.54575068102026114136
0.96834256089409964652
1.36189784896615884158
1.56730596909232033909
1.87861193818464067284
1.48505665011258147779
0.00000000000000000000
0.00000000000000000000
0.54575068102026114136
1.88400000000000011902
2.51200000000000001066
2.19530596909232045277
2.14457704929621906231
2.41054216040779767383
1.75102176122415986725
0.70735653606356163614
1.25310721708382288853
1.41471307212712327228
1.91262761626746047305
2.51754522204240194228
2.83423925295008150016
3.15647850590016343375
2.78351033315398055379
0.00000000000000000000
0.70735653606356163614
0.00000000000000000000
3.46223925295008161385
3.13999999999999968026
3.76799999999999934985
2.19992685864035841803
2.69784140278069584085
2.98514064515359400787
3.54639880359176018487
3.93631910128335649190
3.17343063084557730491
1.07358216526009697667
0.53679108263004848833
1.24414761869361001345
3.46072987321847502784
4.43289998330453460795
3.79468924460234902085
4.10044999165226720095
1.87823587265509295285
2.66344965916832832065
2.34175867318306263343
4.18460954229394577197
1.70767041922157991607
0.00000000000000000000
0.00000000000000000000
0.53679108263004848833
4.15332573121053805210
3.56923318818206602998
4.04482241624694704996
4.72844999165226642646
4.39599999999999901945
5.02399999999999824496
2.99710394819113812304
3.31879493417640425434
3.65244922319921405673
4.84495437318268251659
5.25700876306083131340
4.59666393217209368061
3.90288747720487627646
1.46130302503142672776
2.09539127899290944512
1.84902388480275647886
0.95465085559008844296
0.83571954592007990925
0.41785977296003995463
4.65517282379082253385
4.54666950882723241989
5.15701991637110790379
5.20701433971597005268
1.34237171536141808303
4.94388278520778001734
5.23943279355551183585
5.45486558711102542674
5.35593717508592881416
3.07468523557067152652
2.70822195437686730202
3.36356722938494279163
2.46185456018671411371
4.59359838672482467814
5.03387104223911130418
4.34316013271916290250
0.41785977296003995463
0.00000000000000000000
0.00000000000000000000
5.09544547930510915990
5.86743279355551283771
5.65199999999999924682
6.28000000000000024869
6.28000000000000024869
5.71850995818555407624
5.76850438153041622513
1.55251194240137890823
1.25600000000000133760
1.04585977296004051240
5.86743279355551283771
6.28000000000000024869
5.76850438153041622513
3.98812500457445651136
4.32380078594969941008
3.69924301076018569034
4.67883591409440491304
2.51200000000000178701
2.18051194240137924396
2.79334261778533665677
0.62800000000000066880
6.28000000000000024869
5.71850995818555407624
6.28000000000000024869
5.65693552111955533235
6.28000000000000024869
1.88400000000000167333
6.28000000000000024869
4.04590039297485049019
3.76800000000000157030
3.42134261778533677045
3.14000000000000145661
5.21118049846860209584
5.38848995469809199932
4.85614537032389570470
5.65693552111955533235
6.28000000000000024869
6.28000000000000024869
5.83424497734904612400
5.02400000000000090949
4.39600000000000079581
4.67390039297485060388
5.20624497734904601032
5.83424497734904612400
6.28000000000000024869
6.28000000000000024869
5.65200000000000102318

0.00000000000000000000
0.39921334043325179541
0.62800000000000033573
0.79842668086650359083
1.02721334043325218666
1.25600000000000067146
0.00000000000000000000
0.00000000000000000000
0.39921334043325179541
1.79153381012077672629
1.52376690506038858786
1.29498024549364010305
0.87290661630818755512
0.47369327587493570419
0.94738655174987140839
1.36946018093532417836
2.51200000000000134293
1.88400000000000100719
2.15176690506038914563
0.00000000000000000000
0.00000000000000000000
0.47369327587493570419
1.50747915719379865784
2.06757176263772590730
1.92955278637925120577
2.84356789845731405819
2.48333480351770186090
3.17513579691462677346
2.62135377977617611833
0.99036702534113418839
0.51667374946619848419
1.03334749893239696839
1.55045963078506154886
3.14000000000000056843
3.47156789845731328370
3.76800000000000023803
0.51667374946619848419
0.00000000000000000000
0.00000000000000000000
3.21392721641486511786
2.66014519927641490682
3.25271863591510346225
1.62631460531088745114
2.21928171168937771185
2.14342673716355180957
4.52408822036381152998
4.14604411018190610605
3.84961200863921915172
2.73600017380224080910
0.97412122855100435892
1.00373436374170066365
0.48706061427550217946
3.74963183703765823296
3.78842325653789657736
4.32412787716068969246
1.59670147012019114641
4.42410804876225061122
5.02400000000000090949
4.39600000000000079581
4.77404411018190621974
3.42379278142697573983
3.33825570867103937900
2.82153724655817672584
0.48706061427550217946
0.00000000000000000000
0.00000000000000000000
4.32509269546495112024
3.78938807484215800514
4.32605751376921254803
1.38415153134147761449
1.79418183413195087006
2.00673177291066417993
3.87492514759809392189
4.94613793662643441706
4.84615776502487349831
5.36818765288905730415
5.00926119882270981520
5.49443417728160810043
5.25921708864080450496
3.21498313187753836928
2.61272759700873979938
3.00617348232810144282
2.40017765823002626746
5.43131091508533270229
0.88923624272453405393
0.40217562844903187447
0.80435125689806374893
1.29926654551500719847
5.31581357033536061607
4.81997072374802471018
4.82093554205228613796
5.34200061161220851602
3.87695705897655873429
4.33012133652614128465
4.32808942514767736043
5.88721708864080461865
6.28000000000000024869
5.65200000000000102318
3.66814740942712136373
0.40217562844903187447
0.00000000000000000000
0.00000000000000000000
2.51200000000000134293
2.75908674116405139287
2.15309091706597621751
5.82409382644452833233
6.28000000000000024869
5.88721708864080461865
1.03017562844903221020
1.25600000000000067146
1.52509091706597565974
4.82716510460069336830
5.32827269543217507675
5.32204313288376784641
4.82919701597915818070
6.28000000000000024869
5.82409382644452833233
5.79790678516768043238
6.28000000000000024869
1.88400000000000100719
3.38708674116405195065
3.76800000000000201439
4.04906066826307142748
0.62800000000000033573
6.28000000000000024869
3.14000000000000145661
5.80413634771608766272
6.28000000000000024869
5.79790678516768043238
6.28000000000000024869
4.88885716004685022540
5.44759298356755916615
5.38793283949986712145
4.67706066826307065298
4.39600000000000168399
5.02400000000000090949
5.23579649178378048191
6.28000000000000024869
6.28000000000000024869
5.80413634771608766272
5.86379649178377970742
5.86379649178377970742
5.65200000000000102318
6.28000000000000024869
6.28000000000000024869

262.76863699352338699100
262.76863647467200735264
262.76865065512356522959
262.76863595582057087086
262.76865013627218559122
262.76866431672380031159
262.76862313342212473799
262.76860927332091932840
262.76862261457074509963
262.76864194066871505129
262.76865312869620083802
262.76863894824464296107
262.76863267882021091282
262.76861933757038514159
262.76862940181990779820
262.76863567124428300303
262.76865663194536182345
262.76866047433458106752
262.76864928630698159395
262.76861283597270357859
262.76861639862454467220
262.76862290022216939178
262.76863290609287560073
262.76863641036590024669
262.76863917551725080557
262.76864647623563087109
262.76863913059730748500
262.76863632052589991872
262.76863636544584323929
262.76863318312200590299
262.76862668152438118341
262.76863696442421769461
262.76863668739508739236
262.76863647378934274457
262.76862631807961179220
262.76861631563338050910
262.76864702829266207118
262.76863674539276871656
262.76865709216104960433
262.76863646303331734089
262.76863650795337434829
262.76863660554079160647
262.76863689188110129180
262.76863681933804173241
262.76863661485197098955
262.76863101155828417177
262.76862366359580391872
262.76863366604209204525
262.76863671243938824773
262.76864357413313655343
262.76864026927864870231
262.76865033314709307888
262.76863662213986572169
262.76863676464722630044
262.76863692375371783783
262.76864019673553229950
262.76863396765600100480
262.76860868870903686911
262.76861250217120868911
262.76861985013368894215
262.76863679191490064113
262.76863669872784612380
262.76863680562649960848
262.76865387080522395991
262.76866062981918048536
262.76866416747731136638
262.76863625305151117573
262.76863609394501963834
262.76863558234930451363
262.76863713903389907500
262.76863070393460475316
262.76863376163629482107
262.76863618713207415567
262.76863757469737947758
262.76864053079509631061
262.76864413783647478340
262.76863406769888342751
262.76863712383948268325
262.76862290627423135447
262.76863616211869612016
262.76863617583023824409
262.76863553232254844261
262.76863311812860501959
262.76864063083797873333
262.76864035193307245208
262.76865064860510301514
262.76863712973295150732
262.76863391683377813024
262.76863720318584682900
262.76863706346978233341
262.76863639276757567131
262.76864067051116080620
262.76863861736393346291
262.76864044281296628469
262.76863801258110697745
262.76863651853028613914
262.76863591322108959503
262.76862230096503481036
262.76863798756778578536
262.76863694460854503632
262.76865046348075338756
262.76863675948419540873
262.76861596679503918494
262.76862574955879381378
262.76862333536473670392
262.76865392961724410270
262.76866372139801342200
262.76865042261874805263
262.76862322822046280635
262.76860932670797410537
262.76862001532117574243
262.76863251424470036000
262.76862944614020989320
262.76863332466302836110
262.76863494447655966724
262.76865688000208365338
262.76865050891922237497
262.76864704159402208461
262.76864981730955150852
262.76861264675153506687
262.76864576072762247350
262.76865598913269650438
262.76864821597285981625
262.76862304309605633534
262.76866030070004853769
262.76863597796386784466
262.76862302372717294929
262.76861660131413600539
262.76862690224999141719
262.76863674065810982938
262.76863810372094576451
262.76863576462898208774
262.76863260538459599047
262.76865197573209798065
262.76865974889193466879
262.76866350865122967662
262.76864963664013430389
262.76860908456671950262
262.76861284294039933229
262.76861926535349311962
262.76862242459787921689
262.76863633404775555391
262.76865020605885092664
262.76863690346658586350
262.76862299401659583964

0.00000000000000000000
-0.39837132785795359435
-0.52963983178016582620
-0.36734307902496143861
-0.65404754541354925834
-0.85717353258861628262
0.00000000000000000000
0.00000000000000000000
-0.16695993941316544795
-0.26264162509197902517
-0.84041522330132589769
-0.37869121615015699511
-0.18166565169414314318
0.02851388267931177778
0.15220996378095844048
-0.05655792980811720494
-0.53080096087622730128
-0.85761698102581307435
-0.82267828832528067107
0.00000000000000000000
0.00000000000000000000
0.21541813334309706240
0.43997542779326159756
0.42804346399608805829
0.21564211456238741027
-0.18448200894749527956
-0.11475515305961293822
0.11230098779174020607
0.20107380419436210461
0.57589811926877088055
0.42787021287864424046
0.77082392024847445899
0.77396461013521511418
-0.00143573260120339967
0.22153637709051207660
0.52847735922887806304
0.51642412499114076496
0.00000000000000000000
0.00000000000000000000
-0.07914915690509677360
0.33172112394832720117
-0.17176542041651890469
0.86016283583555541714
0.77297144093914660345
0.65217331053290883425
0.56358573420074564719
0.48110138976684513334
0.31699413186976860279
0.34874346846209725026
0.25920930451532731009
0.50260972760207167642
0.26210716581613496823
-0.18704373268387736173
-0.61552852067909336053
-0.81066108580301732278
0.56036099657298876764
-0.07215139024193292783
0.85805825407901348267
0.85672790989224856251
0.67625625986259441103
0.04182309915978420223
-0.18229880925211033871
0.40084561577258859266
0.02536286175539684620
0.00000000000000000000
0.00000000000000000000
-0.72555808422381851130
-0.52118444110010397896
-0.57502188439642221152
-0.22109677235086508396
-0.59817076155920445579
-0.02637609321314650021
-0.31714582242968086812
0.17795714484552610513
-0.52931656071876564962
-0.25266899388536134818
0.63327031785241838513
0.56247373291181135269
0.71314422998353177441
0.01121824553124923032
0.11146113313116043364
-0.24462549822565846092
-0.50572998815261949179
0.11375774793820510322
-0.10410904462800098236
-0.18677481827276060100
-0.57437201308511598441
-0.66035285120574338524
-0.76883752482995204591
-0.81279130484287909209
-0.84090319624025067213
-0.45895379050127366183
-0.14248639064702309232
0.13775647100943602674
-0.32348233305767831736
0.30865565707194553280
0.00287146156060816326
0.53196074357180955783
0.06145210973187140852
-0.31451310040746544017
0.00000000000000000000
0.00000000000000000000
-0.53079826807697294555
-0.24884859926713681633
-0.45424152680312929187
-0.01882204308180308178
0.00088907000598060940
0.19646500280604600741
-0.72115779081203901235
-0.85716918407303288596
-0.69340678105166109191
-0.52937477514523323396
-0.19274865352287556819
-0.60824961255681286865
-0.02311693810979061417
-0.00232090884809547969
-0.23244610934920692524
-0.48038149978333299916
0.00232359870039054511
-0.85761263026057765746
0.21960146793280607702
0.52847467821745575112
0.78223363168077819640
-0.52963714487141921872
-0.00088472036832941588
-0.00143572531760794396
-0.22832463359043592144
-0.00232628265877312963
-0.41847324484946901713
-0.00287145791881254471
0.31457714430640776326
0.34161556673074883195
0.12067445721487182753
0.78452465984829367063
0.85672356363734780693
0.85805390107516144038
0.63732916678117412790
0.00088036848654525946
-0.00089341738846580160
-0.05075764207674697548
0.15645091235162134069
0.42719917088268710703
0.53195804488887643569
0.00287144699343492649
0.00231821310871086188

0.00000000000000000000
0.31951679815713818211
0.00000000000000000000
0.59916107792405126631
0.20328816150897624504
0.00000000000000000000
0.52963983178016560416
0.85717353258861617160
0.73238341056252420636
-0.28785014429091665411
0.01636158558119745962
0.15055399579488340511
0.71587922022273753342
0.72440663978918906629
0.58960244395248484484
0.24881687416261635826
0.00000000000000000000
0.00000000000000000000
-0.29990098625417571654
0.85761698102581340741
0.53080096087622830048
0.46169182446606343850
0.19855082886443536916
-0.38423878229122343519
-0.47384948019900269278
-0.63970810740663108795
-0.64949177507727640091
-0.87113845537620726578
-0.68907862576506229146
0.44656587126118219011
0.22409160268640915259
0.14153971717498389782
-0.08072223228388371308
0.00000000000000000000
-0.55599533851947091634
0.00000000000000000000
-0.24146712696865868519
0.00143573260120460075
-0.52847735922887739690
-0.77882762568828112215
-0.05830655095291150530
-0.06740242562415833805
-0.14548438281714190512
0.15773710465483847809
-0.10175580226427302644
-0.11264028277223422925
-0.25084659966183137092
-0.59353493475449980998
0.42667627150970766081
-0.28159768321149908354
-0.15626095676084611474
-0.85369967060144391624
-0.68248215559510894135
-0.49744030657608950818
-0.11365416329392734329
0.09978107635461705427
-0.21930671047894934045
0.00000000000000000000
0.00000000000000000000
-0.00173373446825092893
0.72402081681479069086
0.47312597440086212597
0.57654293083798735520
-0.87346959419361613897
-0.85672790989224800740
-0.85805825407901370472
0.05176706289300710834
-0.01163574942359874541
0.24209460882961839068
-0.11386685482841334138
0.12168552233823573538
0.38122533898089150384
0.46907707426287204022
0.18118599637316662454
0.04188902150216152614
0.35730706517900356900
0.29112741685914506062
0.44207019116039325546
0.20242499030662100545
0.82070412561647676508
0.67949707270139525495
0.74574616055114306690
0.56439942296768186303
0.48549639157516527588
-0.45086562548092995462
-0.65728193518670841033
-0.42276064865832380102
-0.26185289495492430900
-0.10679575412849401372
0.18318049693552679313
0.01599116539290897435
0.23432005083366927445
0.59896986939100993474
0.47467229246419329058
0.42558289053036424399
0.41195193322964956950
0.00000000000000000000
0.00000000000000000000
0.59641282176800292092
-0.41136637856678687220
-0.53196074357181022396
-0.00287146156060816326
0.00232090884809547926
0.43348543537801370595
0.23071027648668812615
0.87543238516472765554
0.85716918407303310801
0.65310694995347107206
-0.19298946539128941646
-0.00088907000598061113
0.00962062407637915770
-0.21211703075341323266
-0.57981023898759842528
-0.39780691900326770050
-0.11042685627786909264
0.53079826807697261248
0.84783997787983689243
0.22967008585546094812
0.52963714487141932974
0.00088472036832941403
0.57516085347159917607
0.00232628265877312963
0.41593002088712488495
-0.00232359870039054554
0.85761263026057743541
0.00287145791881254471
-0.45052181778369831955
-0.52847467821745575112
-0.21994472464221551111
0.00143572531760754367
-0.09680598804842446836
-0.61922240712925635808
-0.74875521937599320843
0.01555955760259072375
0.00089341738846580160
-0.00088036848654525707
-0.24806455560601425869
-0.85805390107516121834
-0.85672356363734780693
-0.71381061648854760016
-0.71282031173835691540
-0.30872535389969341102
-0.00231821310871086015
-0.00287144699343492649
-0.53195804488887588057

1
2
3
4
5
2
6
3
5
5
3
2
1
7
2
8
9
7
4
2
9
9
2
7
10
11
12
6
5
11
4
12
5
5
12
11
4
9
13
8
14
9
15
13
14
14
13
9
10
12
16
4
13
12
15
16
13
13
16
12
17
18
19
6
11
18
10
19
11
11
19
18
8
20
14
21
22
20
15
14
22
22
14
20
15
23
16
24
25
23
10
16
25
25
16
23
17
19
26
10
27
19
28
26
27
27
26
19
24
29
25
28
27
29
10
25
27
27
25
29
15
22
30
21
31
22
32
30
31
31
30
22
15
30
23
32
33
30
24
23
33
33
23
30
17
26
34
28
35
26
36
34
35
35
34
26
32
31
37
21
38
31
39
37
38
38
37
31
28
29
40
24
41
29
42
40
41
41
40
29
32
43
33
44
45
43
24
33
45
45
33
43
46
47
48
36
35
47
28
48
35
35
48
47
42
41
49
24
45
41
44
49
45
45
49
41
50
51
52
32
37
51
39
52
37
37
52
51
28
40
53
42
54
40
55
53
54
54
53
40
50
56
51
44
43
56
32
51
43
43
51
56
46
48
57
28
53
48
55
57
53
53
57
48
58
59
60
36
47
59
46
60
47
47
60
59
61
62
63
42
49
62
44
63
49
49
63
62
50
52
64
39
65
52
66
64
65
65
64
52
55
54
67
42
68
54
69
67
68
68
67
54
50
70
56
71
72
70
44
56
72
72
56
70
61
73
62
69
68
73
42
62
68
68
62
73
46
57
74
55
75
57
76
74
75
75
74
57
46
77
60
78
79
77
58
60
79
79
60
77
61
63
80
44
81
63
82
80
81
81
80
63
44
72
81
71
83
72
82
81
83
83
81
72
76
84
74
78
77
84
46
74
77
77
74
84
50
64
85
66
86
64
87
85
86
86
85
64
87
88
85
71
70
88
50
85
70
70
85
88
89
90
91
55
67
90
69
91
67
67
91
90
89
92
90
76
75
92
55
90
75
75
90
92
61
93
73
94
95
93
69
73
95
95
73
93
78
96
79
97
98
96
58
79
98
98
79
96
61
80
93
82
99
80
94
93
99
99
93
80
87
86
100
66
101
86
102
100
101
101
100
86
103
104
105
82
83
104
71
105
83
83
105
104
76
106
84
107
108
106
78
84
108
108
84
106
87
109
88
110
111
109
71
88
111
111
88
109
69
112
91
113
114
112
89
91
114
114
91
112
69
95
112
94
115
95
113
112
115
115
112
95
116
117
118
76
92
117
89
118
92
92
118
117
78
108
96
107
119
108
97
96
119
119
96
108
71
111
105
110
120
111
103
105
120
120
105
111
82
121
99
122
123
121
94
99
123
123
99
121
87
100
109
102
124
100
110
109
124
124
109
100
116
125
117
107
106
125
76
117
106
106
117
125
82
104
121
103
126
104
122
121
126
126
121
104
113
127
114
128
129
127
89
114
129
129
114
127
128
130
129
116
118
130
89
129
118
118
129
130
94
131
115
132
133
131
113
115
133
133
115
131
94
123
134
122
135
123
136
134
135
135
134
123
94
134
131
136
137
134
132
131
137
137
131
134
138
139
140
128
127
139
113
140
127
127
140
139
113
133
140
132
141
133
138
140
141
141
140
133
132
137
142
136
143
137
144
142
143
143
142
137
132
142
141
144
145
142
138
141
145
145
141
142
